----- GAMESS execution script 'rungms' -----
This job is running on host jackson-Z97X-UD3H-BK
under operating system Linux at Wed 23 Jun 2021 11:33:21 AM CDT
Available scratch disk space (Kbyte units) at beginning of the job is
Filesystem     1K-blocks     Used Available Use% Mounted on
/dev/sda2      114337956 62176440  46310380  58% /
GAMESS temporary binary files will be written to /home/jackson/Source/GamessRuns
GAMESS supplementary output files will be written to /home/jackson/Source/gamess/GamessRunsOutput
Copying input file ./3c_hessian.inp to your run's scratch directory...
cp ./3c_hessian.inp /home/jackson/Source/GamessRuns/3c_hessian.F05
unset echo
/home/jackson/Source/gamess/ddikick.x /home/jackson/Source/gamess/gamess.01.x 3c_hessian -ddi 1 1 jackson-Z97X-UD3H-BK -scr /home/jackson/Source/GamessRuns

 Distributed Data Interface kickoff program.
 Initiating 1 compute processes on 1 nodes to run the following command:
 /home/jackson/Source/gamess/gamess.01.x 3c_hessian 

          *******************************************************
          *                                                     *
          *          GAMESS VERSION = 30 SEP 2020 (R2)          *
          *                                                     *
          *              doi.org/10.1063/5.0005188              *
          *                                                     *
          **************** 64 BIT LINUX VERSION *****************

  GAMESS HAS BEEN MADE POSSIBLE WITH IMPORTANT CONTRIBUTIONS FROM
  THE FOLLOWING INDIVIDUALS (IN ALPHABETICAL ORDER):

     IVANA ADAMOVIC, CHRISTINE AIKENS, TOMOKO AKAMA,
     YURI ALEXEEV, YURIKO AOKI, POOJA ARORA, TOSHIO ASADA,
     ANDREY ASADCHEV, KIM K. BALDRIDGE, PRADIPTA BANDYOPADHYAY,
     MARIA BARYSZ, ROB BELL, JONATHAN BENTZ, COLLEEN BERTONI,
     JERRY A. BOATZ, BRETT BODE, KURT BRORSEN, KURT R. BRORSEN,
     LAIMUTIS BYTAUTAS, CALEB CARLIN, LAURA CARRINGTON,
     GALINA CHABAN, BENOIT CHAMPAGNE, WEI CHEN, MAHITO CHIBA,
     DAN CHIPMAN, CHEOL HO CHOI, TANNER CULPITT,
     DIPAYAN DATTA, PAUL DAY, ALBERT DEFUSCO,
     NUWAN DESILVA, J. EMILIANO DEUSTUA,
     TIM DUDLEY, MICHEL DUPUIS, STEVEN T. ELBERT,
     DMITRI FEDOROV, ALEX FINDLATER, GRAHAM FLETCHER,
     MARK FREITAG, CHRISTIAN FRIEDL, DAVID GARMER,
     IGOR S. GERASIMOV, KURT GLAESEMANN, MARK S. GORDON,
     JEFFREY GOUR, FENG LONG GU, EMILIE B. GUIDEZ,
     ANASTASIA GUNINA, SHARON HAMMES-SCHIFFER, MASATAKE HARUTA,
     KIMIHIKO HIRAO, YASUHIRO IKABATA, TZVETELIN IORDANOV,
     STEPHAN IRLE, KAZUYA ISHIMURA, JOE IVANIC, FRANK JENSEN,
     JAN H. JENSEN, VISVALDAS KAIRYS, MUNEAKI KAMIYA,
     MICHIO KATOUDA, NAOAKI KAWAKAMI, DAN KEMP, BERNARD KIRTMAN,
     KAZUO KITAURA, MARIUSZ KLOBUKOWSKI, MASATO KOBAYASHI,
     PRAKASHAN KORAMBATH, JACEK KORCHOWIEC, SHIRO KOSEKI,
     KAROL KOWALSKI, JIMMY KROMANN, STANISLAW KUCHARSKI,
     HENRY KURTZ, SAROM SOK LEANG, HUI LI, SHUHUA LI, WEI LI,
     JESSE LUTZ, ALEKSANDR O. LYKHIN, MARCIN MAKOWSKI,
     JOANI MATO, NIKITA MATSUNAGA, BENEDETTA MENNUCCI,
     GRANT MERRILL, NORIYUKI MINEZAWA, VLADIMIR MIRONOV,
     EISAKU MIYOSHI, JOHN A. MONTGOMERY JR., HIROTOSHI MORI,
     JONATHAN MULLIN, MONIKA MUSIAL, SHIGERU NAGASE,
     TAKESHI NAGATA, HIROMI NAKAI, TAKAHITO NAKAJIMA,
     YUYA NAKAJIMA, HARUYUKI NAKANO, HIROYA NAKATA, SEAN NEDD,
     HEATHER NETZLOFF, KIET A. NGUYEN, YOSHIO NISHIMOTO,
     BOSILJKA NJEGIC, RYAN OLSON, MIKE PAK, ROBERTO PEVERATI,
     BUU PHAM, PIOTR PIECUCH, ANNA POMOGAEVA, DAVID POOLE,
     SPENCER PRUITT, OLIVIER QUINET, LUKE ROSKOP,
     KLAUS RUEDENBERG, ANDREW SAND, TOSAPORN SATTASATHUCHANA,
     NOZOMI SAWADA, MICHAEL W. SCHMIDT, PATRICK E. SCHNEIDER,
     JUNJI SEINO, PRACHI SHARMA, JUN SHEN, JIM SHOEMAKER,
     YINAN SHU, DEJUN SI, JONATHAN SKONE, LYUDMILA SLIPCHENKO,
     TONY SMITH, JIE SONG, MARK SPACKMAN, CASPER STEINMANN,
     WALT STEVENS, PEIFENG SU, SHUJUN SU, CHET SWALINA,
     TETSUYA TAKETSUGU, ZHEN TAO, NANDUN THELLAMUREGE
     SEIKEN TOKURA, JACOPO TOMASI, TSUGUKI TOUMA, TAKAO TSUNEDA,
     HIROAKI UMEDA, JORGE LUIS GALVEZ VALLEJO, YALI WANG,
     SIMON WEBB, AARON WEST, THERESA L. WINDUS, MARTA WLOCH,
     PENG XU, KIYOSHI YAGI, SUSUMU YANAGISAWA, YANG YANG,
     SOOHAENG YOO, TAKESHI YOSHIKAWA, FEDERICO ZAHARIEV,
     TOBY ZENG

  WHO ARE SUPPORTED BY THEIR INSTITUTION/UNIVERSITY/COMPANY/GROUP
  (IN ALPHABETICAL ORDER):

     EP ANALYTICS, FACULTES UNIVERSITAIRES NOTRE-DAME DE LA PAIX,
     INSTITUTE FOR MOLECULAR SCIENCE, IOWA STATE UNIVERSITY,
     JACKSON STATE UNIVERSITY, JOHANNES KEPLER UNIVERSITY LINZ,
     KYUSHU UNIVERSITY, MICHIGAN STATE UNIVERSITY,
     MIE UNIVERSITY, MOSCOW STATE UNIVERSITY,
     N. COPERNICUS UNIVERSITY, NAGOYA UNIVERSITY,
     NANJING UNIVERSITY, NAT. INST. OF ADVANCED INDUSTRIAL
     SCIENCE AND TECHNOLOGY, NATIONAL INST. OF STANDARDS AND
     TECHNOLOGY, NESMEYANOV INSTITUTE OF ORGANOELEMENT COMPOUNDS
     OF RUSSIAN ACADEMY OF SCIENCES, OSAKA PREFECTURE UNIVERSITY,
     PENNSYLVANIA STATE UNIVERSITY, TOKYO INSTITUTE OF TECHNOLOGY,
     UNIVERSITY OF AARHUS, UNIVERSITY OF ALBERTA,
     UNIVERSITY OF CALIFORNIA AT SANTA BARBARA,
     UNIVERSITY OF COPENHAGEN, UNIVERSITY OF IOWA,
     UNIVERSITY OF MEMPHIS, UNIVERSITY OF MINNESOTA,
     UNIVERSITY OF NEBRASKA, UNIVERSITY OF NEW ENGLAND,
     UNIVERSITY OF NOTRE DAME, UNIVERSITY OF PISA,
     UNIVERSITY OF SILESIA, UNIVERSITY OF TOKYO,
     UNIVERSITY OF ZURICH, WASEDA UNIVERSITY, YALE UNIVERSITY

  GAMESS SOFTWARE MANAGEMENT TEAM FOR THIS RELEASE:
     MARK S. GORDON (TEAM LEAD),
     BRETT BODE (SENIOR ADVISOR),
     GIUSEPPE BARCA,
     COLLEEN BERTONI,
     KRISTOPHER KEIPERT (ADVISOR),
     SAROM S. LEANG (DEVELOPMENT LEAD),
     BUU PHAM,
     JORGE LUIS GALVEZ VALLEJO (WEBSITE ADMINISTRATOR),
     PENG XU

 EXECUTION OF GAMESS BEGUN 11:33:21 23-JUN-2021    

            ECHO OF THE FIRST FEW INPUT CARDS -
 INPUT CARD>! Assignment 1 from Dr Gordon                                                   
 INPUT CARD>! NH3 with HF, and 6-31G(d) basis set - hessian run                             
 INPUT CARD>! use C2v symmetry                                                              
 INPUT CARD>!                                                                               
 INPUT CARD> $CONTRL SCFTYP=RHF RUNTYP=HESSIAN $END                                         
 INPUT CARD> $SYSTEM TIMLIM=1 MEMDDI=1 PARALL=.TRUE. $END                                   
 INPUT CARD> $BASIS  GBASIS=N31 NGAUSS=6 NDFUNC=1 $END                                      
 INPUT CARD> $DATA                                                                          
 INPUT CARD>NH3 - 6-31G(d) - hessian                                                        
 INPUT CARD>Cnv      3                                                                      
 INPUT CARD>                                                                                
 INPUT CARD>N           7.0  -0.0000000000  -0.0000000000   0.0396787512                    
 INPUT CARD>H           1.0   0.9316147517   0.0000000000   0.4101057028                    
 INPUT CARD> $END                                                                           
    1000000 WORDS OF MEMORY AVAILABLE

     BASIS OPTIONS
     -------------
     GBASIS=N31          IGAUSS=       6      POLAR=POPN31  
     NDFUNC=       1     NFFUNC=       0     DIFFSP=       F
     NPFUNC=       0      DIFFS=       F     BASNAM=        


     RUN TITLE
     ---------
 NH3 - 6-31G(d) - hessian                                                        

 THE POINT GROUP OF THE MOLECULE IS CNV     
 THE ORDER OF THE PRINCIPAL AXIS IS     3

 ATOM      ATOMIC                      COORDINATES (BOHR)
           CHARGE         X                   Y                   Z
 N           7.0    -0.0000000000       -0.0000000000        0.0749819673
 H           1.0    -0.8802483034        1.5246347848        0.7749874043
 H           1.0    -0.8802483034       -1.5246347848        0.7749874043
 H           1.0     1.7604966068        0.0000000000        0.7749874043

          INTERNUCLEAR DISTANCES (ANGS.)
          ------------------------------

                1 N          2 H          3 H          4 H     

   1 N       0.0000000    1.0025578 *  1.0025578 *  1.0025578 *
   2 H       1.0025578 *  0.0000000    1.6136041 *  1.6136041 *
   3 H       1.0025578 *  1.6136041 *  0.0000000    1.6136041 *
   4 H       1.0025578 *  1.6136041 *  1.6136041 *  0.0000000  

  * ... LESS THAN  3.000


     ATOMIC BASIS SET
     ----------------
 THE CONTRACTED PRIMITIVE FUNCTIONS HAVE BEEN UNNORMALIZED
 THE CONTRACTED BASIS FUNCTIONS ARE NOW NORMALIZED TO UNITY

  SHELL TYPE  PRIMITIVE        EXPONENT          CONTRACTION COEFFICIENT(S)

 N         

      1   S       1          4173.5114600    0.001834772160
      1   S       2           627.4579110    0.013994627002
      1   S       3           142.9020930    0.068586551812
      1   S       4            40.2343293    0.232240873040
      1   S       5            12.8202129    0.469069948082
      1   S       6             4.3904370    0.360455199063

      2   L       7            11.6263619   -0.114961181702    0.067579743878
      2   L       8             2.7162798   -0.169117478561    0.323907295893
      2   L       9             0.7722184    1.145851947027    0.740895139755

      3   L      10             0.2120315    1.000000000000    1.000000000000

      4   D      11             0.8000000    1.000000000000

 H         

      9   S      12            18.7311370    0.033494604338
      9   S      13             2.8253944    0.234726953484
      9   S      14             0.6401217    0.813757326146

     10   S      15             0.1612778    1.000000000000

 TOTAL NUMBER OF BASIS SET SHELLS             =   10
 NUMBER OF CARTESIAN GAUSSIAN BASIS FUNCTIONS =   21
 NUMBER OF ELECTRONS                          =   10
 CHARGE OF MOLECULE                           =    0
 SPIN MULTIPLICITY                            =    1
 NUMBER OF OCCUPIED ORBITALS (ALPHA)          =    5
 NUMBER OF OCCUPIED ORBITALS (BETA )          =    5
 TOTAL NUMBER OF ATOMS                        =    4
 THE NUCLEAR REPULSION ENERGY IS       12.0682126402

     $CONTRL OPTIONS
     ---------------
 SCFTYP=RHF          RUNTYP=HESSIAN      EXETYP=RUN     
 MPLEVL=       0     CITYP =NONE         CCTYP =NONE         VBTYP =NONE    
 DFTTYP=NONE         TDDFT =NONE    
 MULT  =       1     ICHARG=       0     NZVAR =       0     COORD =UNIQUE  
 PP    =NONE         RELWFN=NONE         LOCAL =NONE         NUMGRD=       F
 ISPHER=      -1     NOSYM =       0     MAXIT =      30     UNITS =ANGS    
 PLTORB=       F     MOLPLT=       F     AIMPAC=       F     FRIEND=        
 NPRINT=       7     IREST =       0     GEOM  =INPUT   
 NORMF =       0     NORMP =       0     ITOL  =      20     ICUT  =       9
 INTTYP=BEST         GRDTYP=BEST         QMTTOL= 1.0E-06

     $SYSTEM OPTIONS
     ---------------
  REPLICATED MEMORY=     1000000 WORDS (ON EVERY NODE).
 DISTRIBUTED MEMDDI=           1 MILLION WORDS IN AGGREGATE,
 MEMDDI DISTRIBUTED OVER   1 PROCESSORS IS     1000000 WORDS/PROCESSOR.
 TOTAL MEMORY REQUESTED ON EACH PROCESSOR=     2000000 WORDS.
 TIMLIM=           1.00 MINUTES, OR       0.0 DAYS.
 PARALL= T  BALTYP=  DLB     KDIAG=    0  COREFL= F
 MXSEQ2=     300 MXSEQ3=     150  mem10=         0  mem22=         0

 Using Gaussians for PCM contribution to MEP, params: 0.10000E+01 0.10000E-07

          ----------------
          PROPERTIES INPUT
          ----------------

     MOMENTS            FIELD           POTENTIAL          DENSITY
 IEMOM =       1   IEFLD =       0   IEPOT =       0   IEDEN =       0
 WHERE =COMASS     WHERE =NUCLEI     WHERE =NUCLEI     WHERE =NUCLEI  
 OUTPUT=BOTH       OUTPUT=BOTH       OUTPUT=BOTH       OUTPUT=BOTH    
 IEMINT=       0   IEFINT=       0                     IEDINT=       0
                                                       MORB  =       0
          EXTRAPOLATION IN EFFECT
          DIIS IN EFFECT
 ORBITAL PRINTING OPTION: NPREO=     1    21     2     1

     -------------------------------
     INTEGRAL TRANSFORMATION OPTIONS
     -------------------------------
     NWORD  =            0
     CUTOFF = 1.0E-09     MPTRAN =       0
     DIRTRF =       F     AOINTS =DUP     

          ----------------------
          INTEGRAL INPUT OPTIONS
          ----------------------
 NOPK  =       1 NORDER=       0 SCHWRZ=       F

     ------------------------------------------
     THE POINT GROUP IS CNV, NAXIS= 3, ORDER= 6
     ------------------------------------------

     DIMENSIONS OF THE SYMMETRY SUBSPACES ARE
 A1  =    9     A2  =    0     E   =    6

 ..... DONE SETTING UP THE RUN .....
 CPU     0: STEP CPU TIME=     0.01 TOTAL CPU TIME=          0.0 (      0.0 MIN)
 TOTAL WALL CLOCK TIME=          0.0 SECONDS, CPU UTILIZATION IS    98.15%

     ---------------------------------
     HESSIAN MATRIX CONTROL PARAMETERS
     ---------------------------------
     METHOD=ANALYTIC   NVIB  =       2   VIBSIZ= 0.01000
     RDHESS=       F   PURIFY=       F   PRTIFC=       F
     VIBANL=       T   DECOMP=       F   PROJCT=       F
     SCLFAC= 1.00000   PRTSCN=       F   NPRT  =       0
     PULCOR=       F   NPUN  =       0   REDOVB=       T
     HSSTYP=GENERAL 
     THERMOCHEMISTRY WILL BE PRINTED FOR    1 TEMPERATURES:
      298.15000
 Old integral subroutine is used

     ------------------------------
     CPHF RESPONSE SOLUTION OPTIONS
     ------------------------------
     POLAR  =       F     NWORD  =       0
     CPHF   =AO      

          ********************
          1 ELECTRON INTEGRALS
          ********************
 ...... END OF ONE-ELECTRON INTEGRALS ......
 CPU     0: STEP CPU TIME=     0.00 TOTAL CPU TIME=          0.0 (      0.0 MIN)
 TOTAL WALL CLOCK TIME=          0.0 SECONDS, CPU UTILIZATION IS    98.30%

          -------------
          GUESS OPTIONS
          -------------
          GUESS =HUCKEL            NORB  =       0          NORDER=       0
          MIX   =       F          PRTMO =       F          PUNMO =       F
          TOLZ  = 1.0E-08          TOLE  = 1.0E-05
          SYMDEN=       F          PURIFY=       F

 INITIAL GUESS ORBITALS GENERATED BY HUCKEL   ROUTINE.
 HUCKEL GUESS REQUIRES      6369 WORDS.

 SYMMETRIES FOR INITIAL GUESS ORBITALS FOLLOW.   BOTH SET(S).
     5 ORBITALS ARE OCCUPIED (    1 CORE ORBITALS).
     2=A1       3=E        4=E        5=A1       6=E        7=E        8=A1  
     9=A1      10=A1      11=A1      12=A1      13=A1      14=E       15=E   
 ...... END OF INITIAL ORBITAL SELECTION ......
 CPU     0: STEP CPU TIME=     0.00 TOTAL CPU TIME=          0.0 (      0.0 MIN)
 TOTAL WALL CLOCK TIME=          0.0 SECONDS, CPU UTILIZATION IS    98.46%

                    ----------------------
                    AO INTEGRAL TECHNOLOGY
                    ----------------------
     S,P,L SHELL ROTATED AXIS INTEGRALS, REPROGRAMMED BY
        KAZUYA ISHIMURA (IMS) AND JOSE SIERRA (SYNSTAR).
     S,P,D,L SHELL ROTATED AXIS INTEGRALS PROGRAMMED BY
        KAZUYA ISHIMURA (INSTITUTE FOR MOLECULAR SCIENCE).
     S,P,D,F,G SHELL TO TOTAL QUARTET ANGULAR MOMENTUM SUM 5,
        ERIC PROGRAM BY GRAHAM FLETCHER (ELORET AND NASA ADVANCED
        SUPERCOMPUTING DIVISION, AMES RESEARCH CENTER).
     S,P,D,F,G,L SHELL GENERAL RYS QUADRATURE PROGRAMMED BY
        MICHEL DUPUIS (PACIFIC NORTHWEST NATIONAL LABORATORY).

          --------------------
          2 ELECTRON INTEGRALS
          --------------------

 THE -PK- OPTION IS OFF, THE INTEGRALS ARE NOT IN SUPERMATRIX FORM.
 STORING   15000 INTEGRALS/RECORD ON DISK, USING 12 BYTES/INTEGRAL.
 TWO ELECTRON INTEGRAL EVALUATION REQUIRES   90451 WORDS OF MEMORY.
 II,JST,KST,LST =  1  1  1  1 NREC =         1 INTLOC =    1
 II,JST,KST,LST =  2  1  1  1 NREC =         1 INTLOC =    2
 II,JST,KST,LST =  3  1  1  1 NREC =         1 INTLOC =   34
 II,JST,KST,LST =  4  1  1  1 NREC =         1 INTLOC =  214
 II,JST,KST,LST =  5  1  1  1 NREC =         1 INTLOC = 1189
 II,JST,KST,LST =  6  1  1  1 NREC =         1 INTLOC = 1189
 II,JST,KST,LST =  7  1  1  1 NREC =         1 INTLOC = 1189
 II,JST,KST,LST =  8  1  1  1 NREC =         1 INTLOC = 1189
 II,JST,KST,LST =  9  1  1  1 NREC =         1 INTLOC = 1189
 II,JST,KST,LST = 10  1  1  1 NREC =         1 INTLOC = 2682
 TOTAL NUMBER OF NONZERO TWO-ELECTRON INTEGRALS =                5020
          1 INTEGRAL RECORDS WERE STORED ON DISK FILE  8.
  ...... END OF TWO-ELECTRON INTEGRALS .....
 CPU     0: STEP CPU TIME=     0.01 TOTAL CPU TIME=          0.0 (      0.0 MIN)
 TOTAL WALL CLOCK TIME=          0.0 SECONDS, CPU UTILIZATION IS    99.27%

          --------------------------
                 RHF SCF CALCULATION
          --------------------------

     NUCLEAR ENERGY =        12.0682126402
     MAXIT =   30     NPUNCH=    2
     EXTRAP=T  DAMP=F  SHIFT=F  RSTRCT=F  DIIS=T  DEM=F  SOSCF=F
     DENSITY MATRIX CONV=  1.00E-05
     MEMORY REQUIRED FOR RHF ITERS=     34046 WORDS.

 ITER EX DEM     TOTAL ENERGY        E CHANGE  DENSITY CHANGE    DIIS ERROR
   1  0  0      -55.9995478815   -55.9995478815   0.196025973   0.657820419
          * * *   INITIATING DIIS PROCEDURE   * * *
   2  1  0      -56.1731619214    -0.1736140399   0.081558434   0.068825836
   3  2  0      -56.1829227378    -0.0097608165   0.036578084   0.018052850
   4  3  0      -56.1842469496    -0.0013242117   0.010873079   0.007620435
   5  4  0      -56.1843379292    -0.0000909796   0.003900646   0.002457795
   6  5  0      -56.1843544642    -0.0000165350   0.001893588   0.000735894
   7  6  0      -56.1843563081    -0.0000018439   0.000259968   0.000082300
   8  7  0      -56.1843563348    -0.0000000268   0.000035787   0.000019853
   9  8  0      -56.1843563355    -0.0000000007   0.000003719   0.000001671
  10  9  0      -56.1843563356    -0.0000000000   0.000000310   0.000000151

          -----------------
          DENSITY CONVERGED
          -----------------
     TIME TO FORM FOCK OPERATORS=       0.0 SECONDS (       0.0 SEC/ITER)
     TIME TO SOLVE SCF EQUATIONS=       0.0 SECONDS (       0.0 SEC/ITER)

 FINAL RHF ENERGY IS      -56.1843563356 AFTER  10 ITERATIONS

          ------------
          EIGENVECTORS
          ------------

                      1          2          3          4          5
                  -15.5344    -1.1402    -0.6276    -0.6276    -0.4199
                     A1         A1         E          E          A1  
    1  N  1  S    0.994957  -0.197519  -0.000000  -0.000000   0.063006
    2  N  1  S    0.024838   0.410370  -0.000000  -0.000000  -0.147990
    3  N  1  X   -0.000000   0.000000   0.472872  -0.000000   0.000000
    4  N  1  Y   -0.000000   0.000000  -0.000000   0.472872   0.000000
    5  N  1  Z    0.001517   0.088847  -0.000000  -0.000000   0.555222
    6  N  1  S   -0.001559   0.427731  -0.000000  -0.000000  -0.268534
    7  N  1  X   -0.000000   0.000000   0.278101  -0.000000   0.000000
    8  N  1  Y   -0.000000   0.000000  -0.000000   0.278101   0.000000
    9  N  1  Z   -0.000890   0.047827  -0.000000  -0.000000   0.491930
   10  N  1 XX   -0.003528   0.014932   0.021417  -0.000000  -0.008674
   11  N  1 YY   -0.003528   0.014932  -0.021417  -0.000000  -0.008674
   12  N  1 ZZ   -0.003352   0.000111  -0.000000  -0.000000   0.032150
   13  N  1 XY   -0.000000   0.000000  -0.000000  -0.024730   0.000000
   14  N  1 XZ   -0.000000   0.000000   0.039418  -0.000000   0.000000
   15  N  1 YZ   -0.000000   0.000000  -0.000000   0.039418   0.000000
   16  H  2  S    0.000223   0.137638  -0.138449   0.239801   0.064376
   17  H  2  S    0.000557   0.009872  -0.081664   0.141446   0.046367
   18  H  3  S    0.000223   0.137638  -0.138449  -0.239801   0.064376
   19  H  3  S    0.000557   0.009872  -0.081664  -0.141446   0.046367
   20  H  4  S    0.000223   0.137638   0.276898  -0.000000   0.064376
   21  H  4  S    0.000557   0.009872   0.163328  -0.000000   0.046367

                      6          7          8          9         10
                    0.2229     0.3249     0.3249     0.8965     0.8965
                     A1         E          E          E          E   
    1  N  1  S   -0.125701  -0.000000   0.000000   0.000000   0.000000
    2  N  1  S    0.100167  -0.000000   0.000000   0.000000   0.000000
    3  N  1  X    0.000000  -0.330120   0.000000  -0.366536   0.000000
    4  N  1  Y    0.000000  -0.000000   0.330120   0.000000  -0.366536
    5  N  1  Z    0.143276  -0.000000   0.000000   0.000000   0.000000
    6  N  1  S    2.008686  -0.000000   0.000000   0.000000   0.000000
    7  N  1  X    0.000000  -1.131207   0.000000   1.230312   0.000000
    8  N  1  Y    0.000000  -0.000000   1.131207   0.000000   1.230312
    9  N  1  Z    0.490417  -0.000000   0.000000   0.000000   0.000000
   10  N  1 XX   -0.039778   0.001753   0.000000  -0.119424   0.000000
   11  N  1 YY   -0.039778  -0.001753   0.000000   0.119424   0.000000
   12  N  1 ZZ   -0.040227  -0.000000   0.000000   0.000000   0.000000
   13  N  1 XY    0.000000  -0.000000   0.002024   0.000000   0.137899
   14  N  1 XZ    0.000000  -0.016768   0.000000  -0.081218   0.000000
   15  N  1 YZ    0.000000  -0.000000   0.016768   0.000000  -0.081218
   16  H  2  S   -0.026760  -0.022006  -0.038116   0.384260  -0.665558
   17  H  2  S   -0.985243  -0.900205  -1.559201  -0.009659   0.016730
   18  H  3  S   -0.026760  -0.022006   0.038116   0.384260   0.665558
   19  H  3  S   -0.985243  -0.900205   1.559201  -0.009659  -0.016730
   20  H  4  S   -0.026760   0.044013   0.000000  -0.768520   0.000000
   21  H  4  S   -0.985243   1.800411   0.000000   0.019318   0.000000

                     11         12         13         14         15
                    0.9699     1.2191     1.2322     1.2322     1.3644
                     A1         A1         E          E          A1  
    1  N  1  S   -0.017284   0.061498  -0.000000   0.000000  -0.094240
    2  N  1  S    0.246034  -0.700507  -0.000000   0.000000  -1.532223
    3  N  1  X   -0.000000  -0.000000   1.025920   0.000000   0.000000
    4  N  1  Y   -0.000000  -0.000000  -0.000000  -1.025920   0.000000
    5  N  1  Z   -0.957802  -0.346701  -0.000000   0.000000  -0.158338
    6  N  1  S   -0.153053   0.991277  -0.000000   0.000000   4.181154
    7  N  1  X   -0.000000  -0.000000  -1.319756   0.000000   0.000000
    8  N  1  Y   -0.000000  -0.000000  -0.000000   1.319756   0.000000
    9  N  1  Z    1.084953   0.082411  -0.000000   0.000000   0.814017
   10  N  1 XX    0.061461  -0.001738  -0.109257   0.000000  -0.416792
   11  N  1 YY    0.061461  -0.001738   0.109257   0.000000  -0.416792
   12  N  1 ZZ    0.077786  -0.288136  -0.000000   0.000000  -0.085247
   13  N  1 XY   -0.000000  -0.000000  -0.000000  -0.126159   0.000000
   14  N  1 XZ   -0.000000  -0.000000  -0.079134   0.000000   0.000000
   15  N  1 YZ   -0.000000  -0.000000  -0.000000   0.079134   0.000000
   16  H  2  S   -0.111701   0.691065   0.278582   0.482518  -0.340421
   17  H  2  S   -0.043372  -0.541861  -0.676584  -1.171878  -0.805863
   18  H  3  S   -0.111701   0.691065   0.278582  -0.482518  -0.340421
   19  H  3  S   -0.043372  -0.541861  -0.676584   1.171878  -0.805863
   20  H  4  S   -0.111701   0.691065  -0.557164   0.000000  -0.340421
   21  H  4  S   -0.043372  -0.541861   1.353169   0.000000  -0.805863

                     16         17         18         19         20
                    1.9636     1.9636     2.2825     2.7702     2.7702
                     E          E          A1         E          E   
    1  N  1  S   -0.000000  -0.000000  -0.059389   0.000000   0.000000
    2  N  1  S   -0.000000  -0.000000  -0.423567   0.000000   0.000000
    3  N  1  X   -0.022277  -0.000000   0.000000  -0.100641   0.000000
    4  N  1  Y   -0.000000  -0.022277   0.000000   0.000000  -0.100641
    5  N  1  Z   -0.000000  -0.000000   0.039038   0.000000   0.000000
    6  N  1  S   -0.000000  -0.000000   1.548755   0.000000   0.000000
    7  N  1  X   -0.035126  -0.000000   0.000000  -0.674994   0.000000
    8  N  1  Y   -0.000000  -0.035126   0.000000   0.000000  -0.674994
    9  N  1  Z   -0.000000  -0.000000   0.441382   0.000000   0.000000
   10  N  1 XX   -0.546170  -0.000000   0.444796  -0.816429   0.000000
   11  N  1 YY    0.546170  -0.000000   0.444796   0.816429   0.000000
   12  N  1 ZZ   -0.000000  -0.000000  -1.070550   0.000000   0.000000
   13  N  1 XY   -0.000000   0.630663   0.000000   0.000000   0.942731
   14  N  1 XZ    0.775236  -0.000000   0.000000  -0.766788   0.000000
   15  N  1 YZ   -0.000000   0.775236   0.000000   0.000000  -0.766788
   16  H  2  S   -0.017740   0.030727  -0.499915  -0.476561   0.825428
   17  H  2  S   -0.000123   0.000214  -0.201180   0.009362  -0.016216
   18  H  3  S   -0.017740  -0.030727  -0.499915  -0.476561  -0.825428
   19  H  3  S   -0.000123  -0.000214  -0.201180   0.009362   0.016216
   20  H  4  S    0.035481  -0.000000  -0.499915   0.953122   0.000000
   21  H  4  S    0.000247  -0.000000  -0.201180  -0.018724   0.000000

                     21
                    4.0963
                     A1  
    1  N  1  S   -0.464829
    2  N  1  S    1.195552
    3  N  1  X    0.000000
    4  N  1  Y    0.000000
    5  N  1  Z   -0.098337
    6  N  1  S    3.157925
    7  N  1  X    0.000000
    8  N  1  Y    0.000000
    9  N  1  Z    0.306730
   10  N  1 XX   -1.506307
   11  N  1 YY   -1.506307
   12  N  1 ZZ   -1.517589
   13  N  1 XY    0.000000
   14  N  1 XZ    0.000000
   15  N  1 YZ    0.000000
   16  H  2  S    0.151193
   17  H  2  S   -0.560997
   18  H  3  S    0.151193
   19  H  3  S   -0.560997
   20  H  4  S    0.151193
   21  H  4  S   -0.560997
 ...... END OF RHF CALCULATION ......
 CPU     0: STEP CPU TIME=     0.00 TOTAL CPU TIME=          0.0 (      0.0 MIN)
 TOTAL WALL CLOCK TIME=          0.0 SECONDS, CPU UTILIZATION IS    99.38%

     ----------------------------------------------------------------
     PROPERTY VALUES FOR THE RHF   SELF-CONSISTENT FIELD WAVEFUNCTION
     ----------------------------------------------------------------

          -----------------
          ENERGY COMPONENTS
          -----------------

         WAVEFUNCTION NORMALIZATION =       1.0000000000

                ONE ELECTRON ENERGY =     -99.8056715053
                TWO ELECTRON ENERGY =      31.5531025295
           NUCLEAR REPULSION ENERGY =      12.0682126402
                                      ------------------
                       TOTAL ENERGY =     -56.1843563356

 ELECTRON-ELECTRON POTENTIAL ENERGY =      31.5531025295
  NUCLEUS-ELECTRON POTENTIAL ENERGY =    -155.9073909378
   NUCLEUS-NUCLEUS POTENTIAL ENERGY =      12.0682126402
                                      ------------------
             TOTAL POTENTIAL ENERGY =    -112.2860757681
               TOTAL KINETIC ENERGY =      56.1017194325
                 VIRIAL RATIO (V/T) =       2.0014729834

          ---------------------------------------
          MULLIKEN AND LOWDIN POPULATION ANALYSES
          ---------------------------------------

     ATOMIC MULLIKEN POPULATION IN EACH MOLECULAR ORBITAL

                      1          2          3          4          5

                  2.000000   2.000000   2.000000   2.000000   2.000000

    1             1.999657   1.574973   1.244740   1.244740   1.931822
    2             0.000114   0.141676   0.125877   0.377630   0.022726
    3             0.000114   0.141676   0.125877   0.377630   0.022726
    4             0.000114   0.141676   0.503507   0.000000   0.022726

               ----- POPULATIONS IN EACH AO -----
                             MULLIKEN      LOWDIN
              1  N  1  S      1.99547     1.97925
              2  N  1  S      0.76754     0.52147
              3  N  1  X      0.74769     0.68722
              4  N  1  Y      0.74769     0.68755
              5  N  1  Z      0.96744     0.94494
              6  N  1  S      0.88844     0.42356
              7  N  1  X      0.47816     0.55411
              8  N  1  Y      0.47816     0.55502
              9  N  1  Z      0.85133     0.87376
             10  N  1 XX      0.02693     0.19707
             11  N  1 YY      0.02693     0.19707
             12  N  1 ZZ     -0.00998     0.14982
             13  N  1 XY      0.00765     0.01211
             14  N  1 XZ      0.01125     0.01326
             15  N  1 YZ      0.01125     0.01333
             16  H  2  S      0.50597     0.46449
             17  H  2  S      0.16205     0.26513
             18  H  3  S      0.50597     0.46449
             19  H  3  S      0.16205     0.26513
             20  H  4  S      0.50597     0.46599
             21  H  4  S      0.16205     0.26522

          ----- MULLIKEN ATOMIC OVERLAP POPULATIONS -----
          (OFF-DIAGONAL ELEMENTS NEED TO BE MULTIPLIED BY 2)

             1           2           3           4

    1    7.0009332
    2    0.3316657   0.3878927
    3    0.3316657  -0.0257675   0.3878927
    4    0.3316657  -0.0257675  -0.0257675   0.3878927

          TOTAL MULLIKEN AND LOWDIN ATOMIC POPULATIONS
       ATOM         MULL.POP.    CHARGE          LOW.POP.     CHARGE
    1 N             7.995930   -0.995930         7.809555   -0.809555
    2 H             0.668023    0.331977         0.729620    0.270380
    3 H             0.668023    0.331977         0.729620    0.270380
    4 H             0.668023    0.331977         0.731205    0.268795

          -------------------------------
          BOND ORDER AND VALENCE ANALYSIS     BOND ORDER THRESHOLD=0.050
          -------------------------------

                   BOND                       BOND                       BOND
  ATOM PAIR DIST  ORDER      ATOM PAIR DIST  ORDER      ATOM PAIR DIST  ORDER
    1   2  1.003  0.865        1   3  1.003  0.865        1   4  1.003  0.865

                       TOTAL       BONDED        FREE
      ATOM            VALENCE     VALENCE     VALENCE
    1 N                 2.596       2.596      -0.000
    2 H                 0.852       0.852      -0.000
    3 H                 0.852       0.852      -0.000
    4 H                 0.852       0.852      -0.000

          ---------------------
          ELECTROSTATIC MOMENTS
          ---------------------

 POINT   1           X           Y           Z (BOHR)    CHARGE
                -0.000000    0.000000    0.199285       -0.00 (A.U.)
         DX          DY          DZ         /D/  (DEBYE)
    -0.000000    0.000000    1.920429    1.920429
 ...... END OF PROPERTY EVALUATION ......
 CPU     0: STEP CPU TIME=     0.00 TOTAL CPU TIME=          0.0 (      0.0 MIN)
 TOTAL WALL CLOCK TIME=          0.0 SECONDS, CPU UTILIZATION IS    99.32%

 REGENERATING AO INTEGRAL LIST IN C1 POINT GROUP FOR AO-DRIVEN CPHF

          --------------------
          2 ELECTRON INTEGRALS
          --------------------

 THE -PK- OPTION IS OFF, THE INTEGRALS ARE NOT IN SUPERMATRIX FORM.
 STORING   15000 INTEGRALS/RECORD ON DISK, USING 12 BYTES/INTEGRAL.
 TWO ELECTRON INTEGRAL EVALUATION REQUIRES   90451 WORDS OF MEMORY.
 II,JST,KST,LST =  1  1  1  1 NREC =         1 INTLOC =    1
 II,JST,KST,LST =  2  1  1  1 NREC =         1 INTLOC =    2
 II,JST,KST,LST =  3  1  1  1 NREC =         1 INTLOC =   34
 II,JST,KST,LST =  4  1  1  1 NREC =         1 INTLOC =  214
 II,JST,KST,LST =  5  1  1  1 NREC =         1 INTLOC = 1189
 II,JST,KST,LST =  6  1  1  1 NREC =         1 INTLOC = 3245
 II,JST,KST,LST =  7  1  1  1 NREC =         1 INTLOC = 5710
 II,JST,KST,LST =  8  1  1  1 NREC =         1 INTLOC = 8591
 II,JST,KST,LST =  9  1  1  1 NREC =         1 INTLOC =11986
 II,JST,KST,LST = 10  1  1  1 NREC =         2 INTLOC =  108
 TOTAL NUMBER OF NONZERO TWO-ELECTRON INTEGRALS =               18712
          2 INTEGRAL RECORDS WERE STORED ON DISK FILE  8.
  ...... END OF TWO-ELECTRON INTEGRALS .....
 CPU     0: STEP CPU TIME=     0.00 TOTAL CPU TIME=          0.0 (      0.0 MIN)
 TOTAL WALL CLOCK TIME=          0.0 SECONDS, CPU UTILIZATION IS    99.38%

     ---------------------------------------------
     1ST AND 2ND INTEGRAL DERIVATIVE CONTRIBUTIONS
     ---------------------------------------------
 ...... END OF 1-ELECTRON GRAD+HESS+FOCKDER ......
 CPU     0: STEP CPU TIME=     0.00 TOTAL CPU TIME=          0.0 (      0.0 MIN)
 TOTAL WALL CLOCK TIME=          0.0 SECONDS, CPU UTILIZATION IS    99.45%

     ----------------------------------------------
     TWO ELECTRON INTEGRAL DERIVATIVE CONTRIBUTIONS
     ----------------------------------------------

      12182 WORDS REQUIRED,    999999 WORDS AVAILABLE
 THE COARSE/FINE SCHWARZ SCREENINGS SKIPPED          0/         0 BLOCKS.
 THE NUMBER OF DERIVATIVE INTEGRAL BLOCKS COMPUTED WAS       360
 CPU     0: STEP CPU TIME=     0.02 TOTAL CPU TIME=          0.0 (      0.0 MIN)
 TOTAL WALL CLOCK TIME=          0.0 SECONDS, CPU UTILIZATION IS    99.63%
 ...... END OF 2-ELECTRON GRAD+HESS+FOCKDER ......
 CPU     0: STEP CPU TIME=     0.00 TOTAL CPU TIME=          0.0 (      0.0 MIN)
 TOTAL WALL CLOCK TIME=          0.0 SECONDS, CPU UTILIZATION IS    99.63%

     -------------------------------------------
     COUPLED-PERTURBED CLOSED SHELL HARTREE-FOCK
     -------------------------------------------
 THE CPHF HAS      80 INDEPENDENT ORBITAL ROTATIONS.
 SOLVING FOR    6 NUCLEAR RESPONSES AND 0 ELECTRIC FIELD RESPONSES
           -FA- WILL USE      2388 WORDS,
           -TA- WILL USE      7269 WORDS,
          -FCK- WILL USE     38614 WORDS,
 -WXY- AND -YA- WILL USE     37788 WORDS,
               THERE ARE    999999 WORDS OF REPLICATED MEMORY AVAILABLE.
        TIME FOR -FA-   =        0.000
        TIME FOR -TA-   =        0.000
        TIME FOR -FCK-  =        0.001
 PRECONDITIONED CONJUGATE GRADIENT SOLVER     CONV. TOLERANCE=5.00E-05
 ITER    RESPONSE ERROR        IMPROVED
   1       3.73299E-01             6
   2       1.47061E-01             6
   3       2.58892E-02             6
   4       5.80040E-03             6
   5       1.20278E-03             6
   6       1.65369E-04             6
   7       1.97995E-05             3
 THE CPHF HAS CONVERGED AFTER  7 ITERATIONS.
 IT REQUIRED    39 FOCK-LIKE BUILDS TO FIND THE   6 SYMMETRY UNIQUE RESPONSES.
        TIME FOR -YA-   =        0.004
 ...... DONE WITH CPHF CONTRIBUTIONS ......
 CPU     0: STEP CPU TIME=     0.00 TOTAL CPU TIME=          0.1 (      0.0 MIN)
 TOTAL WALL CLOCK TIME=          0.1 SECONDS, CPU UTILIZATION IS    99.61%

          ---------------
          ENERGY GRADIENT
          ---------------

 UNITS ARE HARTREE/BOHR    E'X               E'Y               E'Z 
    1 N                0.000000000       0.000000000      -0.000058466
    2 H               -0.000009615       0.000016654       0.000019489
    3 H               -0.000009615      -0.000016654       0.000019489
    4 H                0.000019230       0.000000000       0.000019489

          -------------------------------
          CARTESIAN FORCE CONSTANT MATRIX
          -------------------------------

                                   1                          2
                               N                          H         
                          X        Y        Z        X        Y        Z
  1   N            X 0.741631-0.000000-0.000000-0.162200 0.147241 0.098284
                   Y-0.000000 0.741631-0.000000 0.147241-0.332220-0.170233
                   Z-0.000000-0.000000 0.266349 0.066398-0.115005-0.088783
  2   H            X-0.162200 0.147241 0.066398 0.167594-0.165547-0.077428
                   Y 0.147241-0.332220-0.115005-0.165547 0.358752 0.134110
                   Z 0.098284-0.170233-0.088783-0.077428 0.134110 0.081708
  3   H            X-0.162200-0.147241 0.066398 0.013157 0.021771-0.009826
                   Y-0.147241-0.332220 0.115005-0.021771-0.029120 0.018409
                   Z 0.098284 0.170233-0.088783-0.009826-0.018409 0.003538
  4   H            X-0.417229 0.000000-0.132796-0.018551-0.003464-0.011030
                   Y 0.000000-0.077191 0.000000 0.040077 0.002588 0.017714
                   Z-0.196569 0.000000-0.088783 0.020856-0.000695 0.003538

                                   3                          4
                               H                          H         
                          X        Y        Z        X        Y        Z
  3   H            X 0.167594 0.165547-0.077428-0.018551-0.040077 0.020856
                   Y 0.165547 0.358752-0.134110 0.003464 0.002588 0.000695
                   Z-0.077428-0.134110 0.081708-0.011030-0.017714 0.003538
  4   H            X-0.018551 0.003464-0.011030 0.454330 0.000000 0.154857
                   Y-0.040077 0.002588-0.017714 0.000000 0.072015 0.000000
                   Z 0.020856 0.000695 0.003538 0.154857 0.000000 0.081708

          ------------------------          ----------------
          DIPOLE DERIVATIVE TENSOR          (DEBYE/ANGSTROM)
          ------------------------          ----------------

        ATOM                 MU-X           MU-Y           MU-Z
     N          D/DX    -1.827410053    0.000000000    0.000000000
                D/DY     0.000000000   -1.827410053    0.000000000
                D/DZ     0.000000000    0.000000000   -3.420928443
     H          D/DX     0.746512901    0.237985549    0.197251103
                D/DY     0.237985549    0.471710860   -0.341648932
                D/DZ     0.444932138   -0.770645069    1.140322916
     H          D/DX     0.746512901   -0.237985549    0.197251103
                D/DY    -0.237985549    0.471710860    0.341648932
                D/DZ     0.444932138    0.770645069    1.140322916
     H          D/DX     0.334309840    0.000000000   -0.394502205
                D/DY     0.000000000    0.883913922    0.000000000
                D/DZ    -0.889864276    0.000000000    1.140322916

          --------------------------------------------------------
          NORMAL COORDINATE ANALYSIS IN THE HARMONIC APPROXIMATION
          --------------------------------------------------------

          ATOMIC WEIGHTS (AMU)

    1     N                14.00307
    2     H                 1.00782
    3     H                 1.00782
    4     H                 1.00782

 MODES    1 TO    6 ARE TAKEN AS ROTATIONS AND TRANSLATIONS.

 ANALYZING SYMMETRY OF NORMAL MODES...
 WATCH OUT!! THE COUNTING OF DEGENERATE MODES COUNTS INDIVIDUAL MODES,
 E.G. 2*E MEANS ONE (1) SET OF DEGENERATE E MODES

 --- SYMMETRY FOR NORMAL MODES ---
 INCLUDING TRANSLATION AND ROTATION
    3*A1     1*A2     8*E   
 EXCLUDING TRANSLATION AND ROTATION (SAYVETZ < 0.01)
    2*A1     0*A2     4*E   

     FREQUENCIES IN CM**-1, IR INTENSITIES IN DEBYE**2/AMU-ANGSTROM**2,
     REDUCED MASSES IN AMU.

                            1           2           3           4           5
       FREQUENCY:         0.16        0.16        0.00       17.20       20.27  
        SYMMETRY:         E           E           A1          A2          E   
    REDUCED MASS:      4.30071     4.30071     4.25664     1.00783     1.04069
    IR INTENSITY:      0.00013     0.00013     0.00000     0.00000     2.23053

  1   N            X  0.23854920 -0.04486450  0.00000000 -0.00000000 -0.00317572
                   Y  0.04486450  0.23854920 -0.00000000  0.00000000 -0.04919256
                   Z -0.00000000  0.00000000  0.24234650 -0.00000000  0.00000000
  2   H            X  0.23637953 -0.04445631  0.00000009 -0.49805516  0.01536844
                   Y  0.04445655  0.23637932 -0.00000016 -0.28755228  0.23827900
                   Z -0.00184017  0.00524042  0.24234643 -0.00000000 -0.60282983
  3   H            X  0.23637948 -0.04445658  0.00000009  0.49805516  0.01539485
                   Y  0.04445628  0.23637937  0.00000015 -0.28755228  0.23828071
                   Z -0.00361825 -0.00421384  0.24234643 -0.00000000  0.64950692
  4   H            X  0.23637927 -0.04445640 -0.00000017 -0.00000000  0.01538312
                   Y  0.04445646  0.23637958 -0.00000000  0.57510456  0.23825699
                   Z  0.00545842 -0.00102657  0.24234643  0.00000000 -0.04667709

 TRANS. SAYVETZ    X  4.05510839 -0.76265364  0.00000006 -0.00000000  0.00203763
                   Y  0.76265364  4.05510839 -0.00000007  0.00000000  0.03156334
                   Z -0.00000004  0.00000008  4.12632342 -0.00000000  0.00000000
               TOTAL  4.12620220  4.12620220  4.12632342  0.00000000  0.03162904

   ROT. SAYVETZ    X  0.00344245  0.01830384 -0.00000000  0.00000000 -2.42466448
                   Y -0.01830384  0.00344245 -0.00000000 -0.00000000  0.15652904
                   Z  0.00000000 -0.00000000  0.00000000  3.06117659  0.00000000
               TOTAL  0.01862474  0.01862474  0.00000000  3.06117659  2.42971175

                            6           7           8           9          10
       FREQUENCY:        20.27     1209.48     1849.58     1849.58     3689.03  
        SYMMETRY:         E           A1          E           E           A1  
    REDUCED MASS:      1.04069     1.18045     1.06613     1.06613     1.02688
    IR INTENSITY:      2.23053     5.16219     0.50462     0.50462     0.00753

  1   N            X  0.04919256  0.00000000  0.00910913 -0.06422748  0.00000000
                   Y -0.00317572 -0.00000000 -0.06422748 -0.00910913 -0.00000000
                   Z  0.00000000 -0.10608130  0.00000000  0.00000000 -0.03778679
  2   H            X -0.23826546  0.09648937  0.30317117  0.56799178 -0.27088026
                   Y  0.01539583 -0.16712450  0.02693968  0.38754800  0.46917837
                   Z -0.40194202  0.49131013  0.22159945 -0.08920731  0.17500806
  3   H            X -0.23826376  0.09648937 -0.44915064  0.46129289 -0.27088026
                   Y  0.01536943  0.16712450  0.13363858 -0.36477381 -0.46917837
                   Z -0.32109494  0.49131013 -0.18805552 -0.14730709  0.17500806
  4   H            X -0.23828748 -0.19297875  0.01941422 -0.13688747  0.54176051
                   Y  0.01538115 -0.00000000  0.73181893  0.10379105  0.00000000
                   Z  0.72303696  0.49131013 -0.03354392  0.23651441  0.17500806

 TRANS. SAYVETZ    X -0.03156334  0.00000000  0.00000024 -0.00000167 -0.00000000
                   Y  0.00203763 -0.00000000 -0.00000167 -0.00000024  0.00000000
                   Z  0.00000000  0.00000005 -0.00000000  0.00000000  0.00000136
               TOTAL  0.03162904  0.00000005  0.00000169  0.00000169  0.00000136

   ROT. SAYVETZ    X -0.15652904  0.00000000 -0.00010973 -0.00001556 -0.00000000
                   Y -2.42466448 -0.00000000 -0.00001556  0.00010973  0.00000000
                   Z -0.00000000  0.00000000  0.00000000 -0.00000000  0.00000000
               TOTAL  2.42971175  0.00000000  0.00011083  0.00011083  0.00000000

                           11          12
       FREQUENCY:      3821.99     3821.99  
        SYMMETRY:         E           E   
    REDUCED MASS:      1.09084     1.09084
    IR INTENSITY:      0.01097     0.01097

  1   N            X -0.06028457  0.04713811
                   Y -0.04713811 -0.06028457
                   Z  0.00000000  0.00000000
  2   H            X -0.06564321 -0.35748537
                   Y  0.07914949  0.62405222
                   Z  0.03933570  0.27908225
  3   H            X  0.33110540  0.14991342
                   Y  0.58654828  0.22730362
                   Z -0.26136017 -0.10547541
  4   H            X  0.57215134 -0.44738034
                   Y -0.01074549 -0.01374232
                   Z  0.22202447 -0.17360684

 TRANS. SAYVETZ    X -0.00000119  0.00000093
                   Y -0.00000093 -0.00000119
                   Z -0.00000000  0.00000000
               TOTAL  0.00000152  0.00000152

   ROT. SAYVETZ    X -0.00001905 -0.00002436
                   Y  0.00002436 -0.00001905
                   Z  0.00000000 -0.00000000
               TOTAL  0.00003093  0.00003093

 REFERENCE ON SAYVETZ CONDITIONS - A. SAYVETZ, J.CHEM.PHYS., 7, 383-389(1939).

 NOTE - THE MODES J,K ARE ORTHONORMALIZED ACCORDING TO
 SUM ON I   M(I) * (X(I,J)*X(I,K) + Y(I,J)*Y(I,K) + Z(I,J)*Z(I,K)) = DELTA(J,K)

  MODE FREQ(CM**-1)  SYMMETRY  RED. MASS  IR INTENS.
     1       0.155    E        4.300712    0.000131
     2       0.155    E        4.300712    0.000131
     3       0.005    A1       4.256638    0.000000
     4      17.204    A2       1.007825    0.000000
     5      20.268    E        1.040688    2.230528
     6      20.268    E        1.040688    2.230528
     7    1209.481    A1       1.180453    5.162187
     8    1849.581    E        1.066127    0.504615
     9    1849.581    E        1.066127    0.504615
    10    3689.035    A1       1.026879    0.007532
    11    3821.991    E        1.090841    0.010968
    12    3821.991    E        1.090841    0.010968

     -------------------------------
     THERMOCHEMISTRY AT T=  298.15 K
     -------------------------------

 USING IDEAL GAS, RIGID ROTOR, HARMONIC NORMAL MODE APPROXIMATIONS.
 P=  1.01325E+05 PASCAL.
 ALL FREQUENCIES ARE SCALED BY   1.00000
 THE MOMENTS OF INERTIA ARE (IN AMU*BOHR**2)
              5.90385             5.90385             9.37080
 THE ROTATIONAL SYMMETRY NUMBER IS  3.0
 THE ROTATIONAL CONSTANTS ARE (IN GHZ)
    305.40909   305.40909   192.41557
      7 -     12 VIBRATIONAL MODES ARE USED IN THERMOCHEMISTRY.
 THE HARMONIC ZERO POINT ENERGY IS (SCALED BY   1.000)
        0.037001 HARTREE/MOLECULE     8120.829690 CM**-1/MOLECULE 
       23.218641 KCAL/MOL               97.146792 KJ/MOL

               Q               LN Q
 ELEC.     1.00000E+00       0.000000
 TRANS.    2.76149E+06      14.831281
 ROT.      6.81936E+01       4.222351
 VIB.      1.00319E+00       0.003189
 TOT.      1.88917E+08      19.056821

              E         H         G         CV        CP        S
           KJ/MOL    KJ/MOL    KJ/MOL   J/MOL-K   J/MOL-K   J/MOL-K
 ELEC.      0.000     0.000     0.000     0.000     0.000     0.000
 TRANS.     3.718     6.197   -36.766    12.472    20.786   144.099
 ROT.       3.718     3.718   -10.467    12.472    12.472    47.578
 VIB.      97.195    97.195    97.139     1.008     1.008     0.188
 TOTAL    104.632   107.111    49.906    25.951    34.265   191.866
 VIB. THERMAL CORRECTION E(T)-E(0) = H(T)-H(0) =        48.239 J/MOL

              E         H         G         CV        CP        S
         KCAL/MOL  KCAL/MOL  KCAL/MOL CAL/MOL-K CAL/MOL-K CAL/MOL-K
 ELEC.      0.000     0.000     0.000     0.000     0.000     0.000
 TRANS.     0.889     1.481    -8.787     2.981     4.968    34.441
 ROT.       0.889     0.889    -2.502     2.981     2.981    11.371
 VIB.      23.230    23.230    23.217     0.241     0.241     0.045
 TOTAL     25.008    25.600    11.928     6.202     8.190    45.857
 VIB. THERMAL CORRECTION E(T)-E(0) = H(T)-H(0) =        11.529 CAL/MOL
 ......END OF NORMAL COORDINATE ANALYSIS......
 CPU     0: STEP CPU TIME=     0.00 TOTAL CPU TIME=          0.1 (      0.0 MIN)
 TOTAL WALL CLOCK TIME=          0.1 SECONDS, CPU UTILIZATION IS    99.19%
               580000  WORDS OF DYNAMIC MEMORY USED
 EXECUTION OF GAMESS TERMINATED NORMALLY 11:33:21 23-JUN-2021    
 DDI: 263640 bytes (0.3 MB / 0 MWords) used by master data server.

 ----------------------------------------
 CPU timing information for all processes
 ========================================
 0: 0.46 + 0.08 = 0.54
 ----------------------------------------
 ddikick.x: exited gracefully.
unset echo
----- accounting info -----
Files used on the master node jackson-Z97X-UD3H-BK were:
-rw-rw-r-- 1 jackson jackson     404 Jun 23 11:33 /home/jackson/Source/GamessRuns/3c_hessian.F05
-rw-rw-r-- 1 jackson jackson  360032 Jun 23 11:33 /home/jackson/Source/GamessRuns/3c_hessian.F08
-rw-rw-r-- 1 jackson jackson 1865040 Jun 23 11:33 /home/jackson/Source/GamessRuns/3c_hessian.F10
-rw-rw-r-- 1 jackson jackson   22272 Jun 23 11:33 /home/jackson/Source/GamessRuns/3c_hessian.F18
ls: No match.
ls: No match.
ls: No match.
Wed 23 Jun 2021 11:33:24 AM CDT
0.1u 0.0s 0:03.29 6.6% 0+0k 0+16io 0pf+0w
