----- GAMESS execution script 'rungms' -----
This job is running on host jackson-Z97X-UD3H-BK
under operating system Linux at Mon 21 Jun 2021 01:17:28 PM CDT
Available scratch disk space (Kbyte units) at beginning of the job is
Filesystem     1K-blocks     Used Available Use% Mounted on
/dev/sda2      114337956 62843460  45643360  58% /
GAMESS temporary binary files will be written to /home/jackson/Source/GamessRuns
GAMESS supplementary output files will be written to /home/jackson/Source/gamess/GamessRunsOutput
Copying input file ./3c_hessian.inp to your run's scratch directory...
cp ./3c_hessian.inp /home/jackson/Source/GamessRuns/3c_hessian.F05
unset echo
/home/jackson/Source/gamess/ddikick.x /home/jackson/Source/gamess/gamess.01.x 3c_hessian -ddi 1 1 jackson-Z97X-UD3H-BK -scr /home/jackson/Source/GamessRuns

 Distributed Data Interface kickoff program.
 Initiating 1 compute processes on 1 nodes to run the following command:
 /home/jackson/Source/gamess/gamess.01.x 3c_hessian 

          *******************************************************
          *                                                     *
          *          GAMESS VERSION = 30 SEP 2020 (R2)          *
          *                                                     *
          *              doi.org/10.1063/5.0005188              *
          *                                                     *
          **************** 64 BIT LINUX VERSION *****************

  GAMESS HAS BEEN MADE POSSIBLE WITH IMPORTANT CONTRIBUTIONS FROM
  THE FOLLOWING INDIVIDUALS (IN ALPHABETICAL ORDER):

     IVANA ADAMOVIC, CHRISTINE AIKENS, TOMOKO AKAMA,
     YURI ALEXEEV, YURIKO AOKI, POOJA ARORA, TOSHIO ASADA,
     ANDREY ASADCHEV, KIM K. BALDRIDGE, PRADIPTA BANDYOPADHYAY,
     MARIA BARYSZ, ROB BELL, JONATHAN BENTZ, COLLEEN BERTONI,
     JERRY A. BOATZ, BRETT BODE, KURT BRORSEN, KURT R. BRORSEN,
     LAIMUTIS BYTAUTAS, CALEB CARLIN, LAURA CARRINGTON,
     GALINA CHABAN, BENOIT CHAMPAGNE, WEI CHEN, MAHITO CHIBA,
     DAN CHIPMAN, CHEOL HO CHOI, TANNER CULPITT,
     DIPAYAN DATTA, PAUL DAY, ALBERT DEFUSCO,
     NUWAN DESILVA, J. EMILIANO DEUSTUA,
     TIM DUDLEY, MICHEL DUPUIS, STEVEN T. ELBERT,
     DMITRI FEDOROV, ALEX FINDLATER, GRAHAM FLETCHER,
     MARK FREITAG, CHRISTIAN FRIEDL, DAVID GARMER,
     IGOR S. GERASIMOV, KURT GLAESEMANN, MARK S. GORDON,
     JEFFREY GOUR, FENG LONG GU, EMILIE B. GUIDEZ,
     ANASTASIA GUNINA, SHARON HAMMES-SCHIFFER, MASATAKE HARUTA,
     KIMIHIKO HIRAO, YASUHIRO IKABATA, TZVETELIN IORDANOV,
     STEPHAN IRLE, KAZUYA ISHIMURA, JOE IVANIC, FRANK JENSEN,
     JAN H. JENSEN, VISVALDAS KAIRYS, MUNEAKI KAMIYA,
     MICHIO KATOUDA, NAOAKI KAWAKAMI, DAN KEMP, BERNARD KIRTMAN,
     KAZUO KITAURA, MARIUSZ KLOBUKOWSKI, MASATO KOBAYASHI,
     PRAKASHAN KORAMBATH, JACEK KORCHOWIEC, SHIRO KOSEKI,
     KAROL KOWALSKI, JIMMY KROMANN, STANISLAW KUCHARSKI,
     HENRY KURTZ, SAROM SOK LEANG, HUI LI, SHUHUA LI, WEI LI,
     JESSE LUTZ, ALEKSANDR O. LYKHIN, MARCIN MAKOWSKI,
     JOANI MATO, NIKITA MATSUNAGA, BENEDETTA MENNUCCI,
     GRANT MERRILL, NORIYUKI MINEZAWA, VLADIMIR MIRONOV,
     EISAKU MIYOSHI, JOHN A. MONTGOMERY JR., HIROTOSHI MORI,
     JONATHAN MULLIN, MONIKA MUSIAL, SHIGERU NAGASE,
     TAKESHI NAGATA, HIROMI NAKAI, TAKAHITO NAKAJIMA,
     YUYA NAKAJIMA, HARUYUKI NAKANO, HIROYA NAKATA, SEAN NEDD,
     HEATHER NETZLOFF, KIET A. NGUYEN, YOSHIO NISHIMOTO,
     BOSILJKA NJEGIC, RYAN OLSON, MIKE PAK, ROBERTO PEVERATI,
     BUU PHAM, PIOTR PIECUCH, ANNA POMOGAEVA, DAVID POOLE,
     SPENCER PRUITT, OLIVIER QUINET, LUKE ROSKOP,
     KLAUS RUEDENBERG, ANDREW SAND, TOSAPORN SATTASATHUCHANA,
     NOZOMI SAWADA, MICHAEL W. SCHMIDT, PATRICK E. SCHNEIDER,
     JUNJI SEINO, PRACHI SHARMA, JUN SHEN, JIM SHOEMAKER,
     YINAN SHU, DEJUN SI, JONATHAN SKONE, LYUDMILA SLIPCHENKO,
     TONY SMITH, JIE SONG, MARK SPACKMAN, CASPER STEINMANN,
     WALT STEVENS, PEIFENG SU, SHUJUN SU, CHET SWALINA,
     TETSUYA TAKETSUGU, ZHEN TAO, NANDUN THELLAMUREGE
     SEIKEN TOKURA, JACOPO TOMASI, TSUGUKI TOUMA, TAKAO TSUNEDA,
     HIROAKI UMEDA, JORGE LUIS GALVEZ VALLEJO, YALI WANG,
     SIMON WEBB, AARON WEST, THERESA L. WINDUS, MARTA WLOCH,
     PENG XU, KIYOSHI YAGI, SUSUMU YANAGISAWA, YANG YANG,
     SOOHAENG YOO, TAKESHI YOSHIKAWA, FEDERICO ZAHARIEV,
     TOBY ZENG

  WHO ARE SUPPORTED BY THEIR INSTITUTION/UNIVERSITY/COMPANY/GROUP
  (IN ALPHABETICAL ORDER):

     EP ANALYTICS, FACULTES UNIVERSITAIRES NOTRE-DAME DE LA PAIX,
     INSTITUTE FOR MOLECULAR SCIENCE, IOWA STATE UNIVERSITY,
     JACKSON STATE UNIVERSITY, JOHANNES KEPLER UNIVERSITY LINZ,
     KYUSHU UNIVERSITY, MICHIGAN STATE UNIVERSITY,
     MIE UNIVERSITY, MOSCOW STATE UNIVERSITY,
     N. COPERNICUS UNIVERSITY, NAGOYA UNIVERSITY,
     NANJING UNIVERSITY, NAT. INST. OF ADVANCED INDUSTRIAL
     SCIENCE AND TECHNOLOGY, NATIONAL INST. OF STANDARDS AND
     TECHNOLOGY, NESMEYANOV INSTITUTE OF ORGANOELEMENT COMPOUNDS
     OF RUSSIAN ACADEMY OF SCIENCES, OSAKA PREFECTURE UNIVERSITY,
     PENNSYLVANIA STATE UNIVERSITY, TOKYO INSTITUTE OF TECHNOLOGY,
     UNIVERSITY OF AARHUS, UNIVERSITY OF ALBERTA,
     UNIVERSITY OF CALIFORNIA AT SANTA BARBARA,
     UNIVERSITY OF COPENHAGEN, UNIVERSITY OF IOWA,
     UNIVERSITY OF MEMPHIS, UNIVERSITY OF MINNESOTA,
     UNIVERSITY OF NEBRASKA, UNIVERSITY OF NEW ENGLAND,
     UNIVERSITY OF NOTRE DAME, UNIVERSITY OF PISA,
     UNIVERSITY OF SILESIA, UNIVERSITY OF TOKYO,
     UNIVERSITY OF ZURICH, WASEDA UNIVERSITY, YALE UNIVERSITY

  GAMESS SOFTWARE MANAGEMENT TEAM FOR THIS RELEASE:
     MARK S. GORDON (TEAM LEAD),
     BRETT BODE (SENIOR ADVISOR),
     GIUSEPPE BARCA,
     COLLEEN BERTONI,
     KRISTOPHER KEIPERT (ADVISOR),
     SAROM S. LEANG (DEVELOPMENT LEAD),
     BUU PHAM,
     JORGE LUIS GALVEZ VALLEJO (WEBSITE ADMINISTRATOR),
     PENG XU

 EXECUTION OF GAMESS BEGUN 13:17:28 21-JUN-2021    

            ECHO OF THE FIRST FEW INPUT CARDS -
 INPUT CARD>! Assignment 1 from Dr Gordon                                                   
 INPUT CARD>! NH3 with HF, and 6-31G(d) basis set - hessian run                             
 INPUT CARD>! use C2v symmetry                                                              
 INPUT CARD>!                                                                               
 INPUT CARD> $CONTRL SCFTYP=RHF RUNTYP=HESSIAN $END                                         
 INPUT CARD> $SYSTEM TIMLIM=1 MEMDDI=1 PARALL=.TRUE. $END                                   
 INPUT CARD> $BASIS  GBASIS=N31 NGAUSS=6 NDFUNC=1 $END                                      
 INPUT CARD> $DATA                                                                          
 INPUT CARD>NH3 - 6-31G(d) - hessian                                                        
 INPUT CARD>Cnv      3                                                                      
 INPUT CARD>                                                                                
 INPUT CARD>NITROGEN    7.0   0.0000000000  -0.0000000000   0.0000000000                    
 INPUT CARD>HYDROGEN    1.0   0.9884343752   0.0000000000  -0.0000000000                    
 INPUT CARD> $END                                                                           
    1000000 WORDS OF MEMORY AVAILABLE

     BASIS OPTIONS
     -------------
     GBASIS=N31          IGAUSS=       6      POLAR=POPN31  
     NDFUNC=       1     NFFUNC=       0     DIFFSP=       F
     NPFUNC=       0      DIFFS=       F     BASNAM=        


     RUN TITLE
     ---------
 NH3 - 6-31G(d) - hessian                                                        

 THE POINT GROUP OF THE MOLECULE IS CNV     
 THE ORDER OF THE PRINCIPAL AXIS IS     3

 ATOM      ATOMIC                      COORDINATES (BOHR)
           CHARGE         X                   Y                   Z
 NITROGEN    7.0     0.0000000000       -0.0000000000        0.0000000000
 HYDROGEN    1.0    -0.9339350630        1.6176229801        0.0000000000
 HYDROGEN    1.0    -0.9339350630       -1.6176229801        0.0000000000
 HYDROGEN    1.0     1.8678701260        0.0000000000       -0.0000000000

          INTERNUCLEAR DISTANCES (ANGS.)
          ------------------------------

                1 NITR       2 HYDR       3 HYDR       4 HYDR  

   1 NITR    0.0000000    0.9884344 *  0.9884344 *  0.9884344 *
   2 HYDR    0.9884344 *  0.0000000    1.7120186 *  1.7120186 *
   3 HYDR    0.9884344 *  1.7120186 *  0.0000000    1.7120186 *
   4 HYDR    0.9884344 *  1.7120186 *  1.7120186 *  0.0000000  

  * ... LESS THAN  3.000


     ATOMIC BASIS SET
     ----------------
 THE CONTRACTED PRIMITIVE FUNCTIONS HAVE BEEN UNNORMALIZED
 THE CONTRACTED BASIS FUNCTIONS ARE NOW NORMALIZED TO UNITY

  SHELL TYPE  PRIMITIVE        EXPONENT          CONTRACTION COEFFICIENT(S)

 NITROGEN  

      1   S       1          4173.5114600    0.001834772160
      1   S       2           627.4579110    0.013994627002
      1   S       3           142.9020930    0.068586551812
      1   S       4            40.2343293    0.232240873040
      1   S       5            12.8202129    0.469069948082
      1   S       6             4.3904370    0.360455199063

      2   L       7            11.6263619   -0.114961181702    0.067579743878
      2   L       8             2.7162798   -0.169117478561    0.323907295893
      2   L       9             0.7722184    1.145851947027    0.740895139755

      3   L      10             0.2120315    1.000000000000    1.000000000000

      4   D      11             0.8000000    1.000000000000

 HYDROGEN  

      9   S      12            18.7311370    0.033494604338
      9   S      13             2.8253944    0.234726953484
      9   S      14             0.6401217    0.813757326146

     10   S      15             0.1612778    1.000000000000

 TOTAL NUMBER OF BASIS SET SHELLS             =   10
 NUMBER OF CARTESIAN GAUSSIAN BASIS FUNCTIONS =   21
 NUMBER OF ELECTRONS                          =   10
 CHARGE OF MOLECULE                           =    0
 SPIN MULTIPLICITY                            =    1
 NUMBER OF OCCUPIED ORBITALS (ALPHA)          =    5
 NUMBER OF OCCUPIED ORBITALS (BETA )          =    5
 TOTAL NUMBER OF ATOMS                        =    4
 THE NUCLEAR REPULSION ENERGY IS       12.1700382117

     $CONTRL OPTIONS
     ---------------
 SCFTYP=RHF          RUNTYP=HESSIAN      EXETYP=RUN     
 MPLEVL=       0     CITYP =NONE         CCTYP =NONE         VBTYP =NONE    
 DFTTYP=NONE         TDDFT =NONE    
 MULT  =       1     ICHARG=       0     NZVAR =       0     COORD =UNIQUE  
 PP    =NONE         RELWFN=NONE         LOCAL =NONE         NUMGRD=       F
 ISPHER=      -1     NOSYM =       0     MAXIT =      30     UNITS =ANGS    
 PLTORB=       F     MOLPLT=       F     AIMPAC=       F     FRIEND=        
 NPRINT=       7     IREST =       0     GEOM  =INPUT   
 NORMF =       0     NORMP =       0     ITOL  =      20     ICUT  =       9
 INTTYP=BEST         GRDTYP=BEST         QMTTOL= 1.0E-06

     $SYSTEM OPTIONS
     ---------------
  REPLICATED MEMORY=     1000000 WORDS (ON EVERY NODE).
 DISTRIBUTED MEMDDI=           1 MILLION WORDS IN AGGREGATE,
 MEMDDI DISTRIBUTED OVER   1 PROCESSORS IS     1000000 WORDS/PROCESSOR.
 TOTAL MEMORY REQUESTED ON EACH PROCESSOR=     2000000 WORDS.
 TIMLIM=           1.00 MINUTES, OR       0.0 DAYS.
 PARALL= T  BALTYP=  DLB     KDIAG=    0  COREFL= F
 MXSEQ2=     300 MXSEQ3=     150  mem10=         0  mem22=         0

 Using Gaussians for PCM contribution to MEP, params: 0.10000E+01 0.10000E-07

          ----------------
          PROPERTIES INPUT
          ----------------

     MOMENTS            FIELD           POTENTIAL          DENSITY
 IEMOM =       1   IEFLD =       0   IEPOT =       0   IEDEN =       0
 WHERE =COMASS     WHERE =NUCLEI     WHERE =NUCLEI     WHERE =NUCLEI  
 OUTPUT=BOTH       OUTPUT=BOTH       OUTPUT=BOTH       OUTPUT=BOTH    
 IEMINT=       0   IEFINT=       0                     IEDINT=       0
                                                       MORB  =       0
          EXTRAPOLATION IN EFFECT
          DIIS IN EFFECT
 ORBITAL PRINTING OPTION: NPREO=     1    21     2     1

     -------------------------------
     INTEGRAL TRANSFORMATION OPTIONS
     -------------------------------
     NWORD  =            0
     CUTOFF = 1.0E-09     MPTRAN =       0
     DIRTRF =       F     AOINTS =DUP     

          ----------------------
          INTEGRAL INPUT OPTIONS
          ----------------------
 NOPK  =       1 NORDER=       0 SCHWRZ=       F

     ------------------------------------------
     THE POINT GROUP IS CNV, NAXIS= 3, ORDER= 6
     ------------------------------------------

     DIMENSIONS OF THE SYMMETRY SUBSPACES ARE
 A1  =    9     A2  =    0     E   =    6

 ..... DONE SETTING UP THE RUN .....
 CPU     0: STEP CPU TIME=     0.00 TOTAL CPU TIME=          0.0 (      0.0 MIN)
 TOTAL WALL CLOCK TIME=          0.0 SECONDS, CPU UTILIZATION IS    99.85%

     ---------------------------------
     HESSIAN MATRIX CONTROL PARAMETERS
     ---------------------------------
     METHOD=ANALYTIC   NVIB  =       2   VIBSIZ= 0.01000
     RDHESS=       F   PURIFY=       F   PRTIFC=       F
     VIBANL=       T   DECOMP=       F   PROJCT=       F
     SCLFAC= 1.00000   PRTSCN=       F   NPRT  =       0
     PULCOR=       F   NPUN  =       0   REDOVB=       T
     HSSTYP=GENERAL 
     THERMOCHEMISTRY WILL BE PRINTED FOR    1 TEMPERATURES:
      298.15000
 Old integral subroutine is used

     ------------------------------
     CPHF RESPONSE SOLUTION OPTIONS
     ------------------------------
     POLAR  =       F     NWORD  =       0
     CPHF   =AO      

          ********************
          1 ELECTRON INTEGRALS
          ********************
 ...... END OF ONE-ELECTRON INTEGRALS ......
 CPU     0: STEP CPU TIME=     0.00 TOTAL CPU TIME=          0.0 (      0.0 MIN)
 TOTAL WALL CLOCK TIME=          0.0 SECONDS, CPU UTILIZATION IS    99.83%

          -------------
          GUESS OPTIONS
          -------------
          GUESS =HUCKEL            NORB  =       0          NORDER=       0
          MIX   =       F          PRTMO =       F          PUNMO =       F
          TOLZ  = 1.0E-08          TOLE  = 1.0E-05
          SYMDEN=       F          PURIFY=       F

 INITIAL GUESS ORBITALS GENERATED BY HUCKEL   ROUTINE.
 HUCKEL GUESS REQUIRES      6369 WORDS.

 SYMMETRIES FOR INITIAL GUESS ORBITALS FOLLOW.   BOTH SET(S).
     5 ORBITALS ARE OCCUPIED (    1 CORE ORBITALS).
     2=A1       3=?E       4=E        5=A1       6=E        7=?E       8=?A1 
     9=A1      10=A1      11=A1      12=A1      13=A1      14=E       15=E   
 ...... END OF INITIAL ORBITAL SELECTION ......
 CPU     0: STEP CPU TIME=     0.00 TOTAL CPU TIME=          0.0 (      0.0 MIN)
 TOTAL WALL CLOCK TIME=          0.0 SECONDS, CPU UTILIZATION IS    99.86%

                    ----------------------
                    AO INTEGRAL TECHNOLOGY
                    ----------------------
     S,P,L SHELL ROTATED AXIS INTEGRALS, REPROGRAMMED BY
        KAZUYA ISHIMURA (IMS) AND JOSE SIERRA (SYNSTAR).
     S,P,D,L SHELL ROTATED AXIS INTEGRALS PROGRAMMED BY
        KAZUYA ISHIMURA (INSTITUTE FOR MOLECULAR SCIENCE).
     S,P,D,F,G SHELL TO TOTAL QUARTET ANGULAR MOMENTUM SUM 5,
        ERIC PROGRAM BY GRAHAM FLETCHER (ELORET AND NASA ADVANCED
        SUPERCOMPUTING DIVISION, AMES RESEARCH CENTER).
     S,P,D,F,G,L SHELL GENERAL RYS QUADRATURE PROGRAMMED BY
        MICHEL DUPUIS (PACIFIC NORTHWEST NATIONAL LABORATORY).

          --------------------
          2 ELECTRON INTEGRALS
          --------------------

 THE -PK- OPTION IS OFF, THE INTEGRALS ARE NOT IN SUPERMATRIX FORM.
 STORING   15000 INTEGRALS/RECORD ON DISK, USING 12 BYTES/INTEGRAL.
 TWO ELECTRON INTEGRAL EVALUATION REQUIRES   90451 WORDS OF MEMORY.
 II,JST,KST,LST =  1  1  1  1 NREC =         1 INTLOC =    1
 II,JST,KST,LST =  2  1  1  1 NREC =         1 INTLOC =    2
 II,JST,KST,LST =  3  1  1  1 NREC =         1 INTLOC =   34
 II,JST,KST,LST =  4  1  1  1 NREC =         1 INTLOC =  214
 II,JST,KST,LST =  5  1  1  1 NREC =         1 INTLOC = 1189
 II,JST,KST,LST =  6  1  1  1 NREC =         1 INTLOC = 1189
 II,JST,KST,LST =  7  1  1  1 NREC =         1 INTLOC = 1189
 II,JST,KST,LST =  8  1  1  1 NREC =         1 INTLOC = 1189
 II,JST,KST,LST =  9  1  1  1 NREC =         1 INTLOC = 1189
 II,JST,KST,LST = 10  1  1  1 NREC =         1 INTLOC = 2070
 TOTAL NUMBER OF NONZERO TWO-ELECTRON INTEGRALS =                3516
          1 INTEGRAL RECORDS WERE STORED ON DISK FILE  8.
  ...... END OF TWO-ELECTRON INTEGRALS .....
 CPU     0: STEP CPU TIME=     0.01 TOTAL CPU TIME=          0.0 (      0.0 MIN)
 TOTAL WALL CLOCK TIME=          0.0 SECONDS, CPU UTILIZATION IS    99.92%

          --------------------------
                 RHF SCF CALCULATION
          --------------------------

     NUCLEAR ENERGY =        12.1700382117
     MAXIT =   30     NPUNCH=    2
     EXTRAP=T  DAMP=F  SHIFT=F  RSTRCT=F  DIIS=T  DEM=F  SOSCF=F
     DENSITY MATRIX CONV=  1.00E-05
     MEMORY REQUIRED FOR RHF ITERS=     34046 WORDS.

 ITER EX DEM     TOTAL ENERGY        E CHANGE  DENSITY CHANGE    DIIS ERROR
   1  0  0      -56.0170254890   -56.0170254890   0.206745399   0.776072748
          * * *   INITIATING DIIS PROCEDURE   * * *
   2  1  0      -56.1627159500    -0.1456904610   0.111191994   0.120611035
   3  2  0      -56.1725905026    -0.0098745526   0.021914718   0.024025105
   4  3  0      -56.1738074540    -0.0012169514   0.018656192   0.020221715
   5  4  0      -56.1739794646    -0.0001720106   0.002028428   0.002071696
   6  5  0      -56.1739850168    -0.0000055522   0.000567251   0.000445234
   7  6  0      -56.1739852524    -0.0000002355   0.000015292   0.000009448
   8  7  0      -56.1739852526    -0.0000000002   0.000001265   0.000000863
   9  8  0      -56.1739852526    -0.0000000000   0.000000033   0.000000046

          -----------------
          DENSITY CONVERGED
          -----------------
     TIME TO FORM FOCK OPERATORS=       0.0 SECONDS (       0.0 SEC/ITER)
     TIME TO SOLVE SCF EQUATIONS=       0.0 SECONDS (       0.0 SEC/ITER)

 FINAL RHF ENERGY IS      -56.1739852526 AFTER   9 ITERATIONS

          ------------
          EIGENVECTORS
          ------------

                      1          2          3          4          5
                  -15.5147    -1.1187    -0.6457    -0.6457    -0.3793
                     A1         A1         E          E          A1  
    1  N  1  S    0.994820  -0.201222   0.000000   0.000000   0.000000
    2  N  1  S    0.025112   0.416580   0.000000   0.000000   0.000000
    3  N  1  X    0.000000   0.000000   0.472246   0.000000   0.000000
    4  N  1  Y    0.000000   0.000000   0.000000   0.472246   0.000000
    5  N  1  Z    0.000000   0.000000   0.000000   0.000000   0.591279
    6  N  1  S   -0.000590   0.429756   0.000000   0.000000   0.000000
    7  N  1  X    0.000000   0.000000   0.280124   0.000000   0.000000
    8  N  1  Y    0.000000   0.000000   0.000000   0.280124   0.000000
    9  N  1  Z    0.000000   0.000000   0.000000   0.000000   0.555893
   10  N  1 XX   -0.003743   0.022463   0.024922   0.000000   0.000000
   11  N  1 YY   -0.003743   0.022463  -0.024922   0.000000   0.000000
   12  N  1 ZZ   -0.003605  -0.012242   0.000000   0.000000   0.000000
   13  N  1 XY    0.000000   0.000000   0.000000  -0.028777   0.000000
   14  N  1 XZ    0.000000   0.000000   0.000000   0.000000   0.000000
   15  N  1 YZ    0.000000   0.000000   0.000000   0.000000   0.000000
   16  H  2  S    0.000212   0.135353  -0.140627   0.243574   0.000000
   17  H  2  S    0.000304   0.013373  -0.066922   0.115912   0.000000
   18  H  3  S    0.000212   0.135353  -0.140627  -0.243574   0.000000
   19  H  3  S    0.000304   0.013373  -0.066922  -0.115912   0.000000
   20  H  4  S    0.000212   0.135353   0.281255   0.000000   0.000000
   21  H  4  S    0.000304   0.013373   0.133843   0.000000   0.000000

                      6          7          8          9         10
                    0.2318     0.3319     0.3319     0.9386     0.9386
                     A1         E          E          E          E   
    1  N  1  S   -0.135951  -0.000000   0.000000   0.000000   0.000000
    2  N  1  S    0.131631  -0.000000   0.000000   0.000000   0.000000
    3  N  1  X    0.000000  -0.309035   0.000000  -0.416414   0.000000
    4  N  1  Y    0.000000  -0.000000   0.309035   0.000000  -0.416414
    5  N  1  Z    0.000000  -0.000000   0.000000   0.000000   0.000000
    6  N  1  S    2.057119  -0.000000   0.000000   0.000000   0.000000
    7  N  1  X    0.000000  -1.229891   0.000000   1.495193   0.000000
    8  N  1  Y    0.000000  -0.000000   1.229891   0.000000   1.495193
    9  N  1  Z    0.000000  -0.000000   0.000000   0.000000   0.000000
   10  N  1 XX   -0.034982  -0.000506   0.000000  -0.156380   0.000000
   11  N  1 YY   -0.034982   0.000506   0.000000   0.156380   0.000000
   12  N  1 ZZ   -0.048805  -0.000000   0.000000   0.000000   0.000000
   13  N  1 XY    0.000000  -0.000000  -0.000584   0.000000   0.180572
   14  N  1 XZ    0.000000  -0.000000   0.000000   0.000000   0.000000
   15  N  1 YZ    0.000000  -0.000000   0.000000   0.000000   0.000000
   16  H  2  S   -0.041416  -0.013301  -0.023039   0.375779  -0.650868
   17  H  2  S   -0.985217  -0.938059  -1.624767   0.129310  -0.223972
   18  H  3  S   -0.041416  -0.013301   0.023039   0.375779   0.650868
   19  H  3  S   -0.985217  -0.938059   1.624767   0.129310   0.223972
   20  H  4  S   -0.041416   0.026603   0.000000  -0.751557   0.000000
   21  H  4  S   -0.985217   1.876119   0.000000  -0.258620   0.000000

                     11         12         13         14         15
                    0.9744     1.0589     1.2658     1.2658     1.3277
                     A1         A1         E          E          A1  
    1  N  1  S   -0.000000  -0.092137   0.000000  -0.000000  -0.041986
    2  N  1  S   -0.000000  -0.111519   0.000000  -0.000000  -1.684464
    3  N  1  X   -0.000000   0.000000   1.026825  -0.000000  -0.000000
    4  N  1  Y   -0.000000   0.000000   0.000000  -1.026825  -0.000000
    5  N  1  Z   -1.009767   0.000000   0.000000  -0.000000  -0.000000
    6  N  1  S   -0.000000   0.977962   0.000000  -0.000000   4.023495
    7  N  1  X   -0.000000   0.000000  -1.292344  -0.000000  -0.000000
    8  N  1  Y   -0.000000   0.000000   0.000000   1.292344  -0.000000
    9  N  1  Z    1.029671   0.000000   0.000000  -0.000000  -0.000000
   10  N  1 XX   -0.000000  -0.169659  -0.154229  -0.000000  -0.336547
   11  N  1 YY   -0.000000  -0.169659   0.154229  -0.000000  -0.336547
   12  N  1 ZZ   -0.000000   0.143735   0.000000  -0.000000  -0.285242
   13  N  1 XY   -0.000000   0.000000   0.000000  -0.178088  -0.000000
   14  N  1 XZ   -0.000000   0.000000   0.000000  -0.000000  -0.000000
   15  N  1 YZ   -0.000000   0.000000   0.000000  -0.000000  -0.000000
   16  H  2  S   -0.000000  -0.707361   0.294049   0.509309   0.121245
   17  H  2  S   -0.000000   0.156357  -0.669076  -1.158874  -0.948251
   18  H  3  S   -0.000000  -0.707361   0.294049  -0.509309   0.121245
   19  H  3  S   -0.000000   0.156357  -0.669076   1.158874  -0.948251
   20  H  4  S   -0.000000  -0.707361  -0.588099  -0.000000   0.121245
   21  H  4  S   -0.000000   0.156357   1.338153  -0.000000  -0.948251

                     16         17         18         19         20
                    1.9933     1.9933     2.5142     2.7085     2.7085
                     E          E          A1         E          E   
    1  N  1  S   -0.000000  -0.000000  -0.060489  -0.000000   0.000000
    2  N  1  S   -0.000000  -0.000000  -0.288665  -0.000000   0.000000
    3  N  1  X   -0.000000  -0.000000   0.000000   0.120456   0.000000
    4  N  1  Y   -0.000000  -0.000000   0.000000  -0.000000  -0.120456
    5  N  1  Z   -0.000000  -0.000000   0.000000  -0.000000   0.000000
    6  N  1  S   -0.000000  -0.000000   1.307485  -0.000000   0.000000
    7  N  1  X   -0.000000  -0.000000   0.000000   0.870473   0.000000
    8  N  1  Y   -0.000000  -0.000000   0.000000  -0.000000  -0.870473
    9  N  1  Z   -0.000000  -0.000000   0.000000  -0.000000   0.000000
   10  N  1 XX   -0.000000  -0.000000   0.497567   1.033643   0.000000
   11  N  1 YY   -0.000000  -0.000000   0.497567  -1.033643   0.000000
   12  N  1 ZZ   -0.000000  -0.000000  -1.169830  -0.000000   0.000000
   13  N  1 XY   -0.000000  -0.000000   0.000000  -0.000000   1.193548
   14  N  1 XZ    1.000000  -0.000000   0.000000  -0.000000   0.000000
   15  N  1 YZ   -0.000000   1.000000   0.000000  -0.000000   0.000000
   16  H  2  S   -0.000000  -0.000000  -0.552139   0.494608   0.856687
   17  H  2  S   -0.000000  -0.000000  -0.111507   0.055144   0.095512
   18  H  3  S   -0.000000  -0.000000  -0.552139   0.494608  -0.856687
   19  H  3  S   -0.000000  -0.000000  -0.111507   0.055144  -0.095512
   20  H  4  S   -0.000000  -0.000000  -0.552139  -0.989217   0.000000
   21  H  4  S   -0.000000  -0.000000  -0.111507  -0.110287   0.000000

                     21
                    4.1309
                     A1  
    1  N  1  S   -0.462683
    2  N  1  S    1.215197
    3  N  1  X   -0.000000
    4  N  1  Y   -0.000000
    5  N  1  Z   -0.000000
    6  N  1  S    3.098038
    7  N  1  X   -0.000000
    8  N  1  Y   -0.000000
    9  N  1  Z   -0.000000
   10  N  1 XX   -1.539856
   11  N  1 YY   -1.539856
   12  N  1 ZZ   -1.472068
   13  N  1 XY   -0.000000
   14  N  1 XZ   -0.000000
   15  N  1 YZ   -0.000000
   16  H  2  S    0.213666
   17  H  2  S   -0.566442
   18  H  3  S    0.213666
   19  H  3  S   -0.566442
   20  H  4  S    0.213666
   21  H  4  S   -0.566442
 ...... END OF RHF CALCULATION ......
 CPU     0: STEP CPU TIME=     0.00 TOTAL CPU TIME=          0.0 (      0.0 MIN)
 TOTAL WALL CLOCK TIME=          0.0 SECONDS, CPU UTILIZATION IS    99.93%

     ----------------------------------------------------------------
     PROPERTY VALUES FOR THE RHF   SELF-CONSISTENT FIELD WAVEFUNCTION
     ----------------------------------------------------------------

          -----------------
          ENERGY COMPONENTS
          -----------------

         WAVEFUNCTION NORMALIZATION =       1.0000000000

                ONE ELECTRON ENERGY =    -100.0797795397
                TWO ELECTRON ENERGY =      31.7357560754
           NUCLEAR REPULSION ENERGY =      12.1700382117
                                      ------------------
                       TOTAL ENERGY =     -56.1739852526

 ELECTRON-ELECTRON POTENTIAL ENERGY =      31.7357560754
  NUCLEUS-ELECTRON POTENTIAL ENERGY =    -156.1573442827
   NUCLEUS-NUCLEUS POTENTIAL ENERGY =      12.1700382117
                                      ------------------
             TOTAL POTENTIAL ENERGY =    -112.2515499956
               TOTAL KINETIC ENERGY =      56.0775647430
                 VIRIAL RATIO (V/T) =       2.0017194133

  ...... PI ENERGY ANALYSIS ......

 ENERGY ANALYSIS:
            FOCK ENERGY=    -36.6082675345
          BARE H ENERGY=   -100.0797795397
     ELECTRONIC ENERGY =    -68.3440235371
         KINETIC ENERGY=     56.0775647430
          N-N REPULSION=     12.1700382117
           TOTAL ENERGY=    -56.1739853254
        SIGMA PART(1+2)=    -62.0862074558
               (K,V1,2)=     52.9787151689   -141.3014539850     26.2365313603
           PI PART(1+2)=     -6.2578160813
               (K,V1,2)=      3.0988495741    -14.8558902978      5.4992246423
  SIGMA SKELETON, ERROR=    -49.9161692441     -0.0000000000
             MIXED PART= 0.00000E+00 0.00000E+00 0.00000E+00 0.00000E+00
 ...... END OF PI ENERGY ANALYSIS ......

          ---------------------------------------
          MULLIKEN AND LOWDIN POPULATION ANALYSES
          ---------------------------------------

     ATOMIC MULLIKEN POPULATION IN EACH MOLECULAR ORBITAL

                      1          2          3          4          5

                  2.000000   2.000000   2.000000   2.000000   2.000000

    1             1.999785   1.576624   1.253103   1.253103   2.000000
    2             0.000072   0.141125   0.124483   0.373449   0.000000
    3             0.000072   0.141125   0.124483   0.373449   0.000000
    4             0.000072   0.141125   0.497932   0.000000   0.000000

               ----- POPULATIONS IN EACH AO -----
                             MULLIKEN      LOWDIN
              1  N  1  S      1.99505     1.97849
              2  N  1  S      0.72561     0.48320
              3  N  1  X      0.75704     0.69544
              4  N  1  Y      0.75704     0.69595
              5  N  1  Z      1.04059     1.03469
              6  N  1  S      0.80716     0.38761
              7  N  1  X      0.48570     0.54516
              8  N  1  Y      0.48570     0.54650
              9  N  1  Z      0.95941     0.96531
             10  N  1 XX      0.03733     0.19896
             11  N  1 YY      0.03733     0.19896
             12  N  1 ZZ     -0.01571     0.12386
             13  N  1 XY      0.01036     0.01621
             14  N  1 XZ      0.00000     0.00000
             15  N  1 YZ      0.00000     0.00000
             16  H  2  S      0.49934     0.45133
             17  H  2  S      0.13979     0.25781
             18  H  3  S      0.49934     0.45133
             19  H  3  S      0.13979     0.25781
             20  H  4  S      0.49934     0.45342
             21  H  4  S      0.13979     0.25792

          ----- MULLIKEN ATOMIC OVERLAP POPULATIONS -----
          (OFF-DIAGONAL ELEMENTS NEED TO BE MULTIPLIED BY 2)

             1           2           3           4

    1    7.0504562
    2    0.3440528   0.3349249
    3    0.3440528  -0.0199246   0.3349249
    4    0.3440528  -0.0199246  -0.0199246   0.3349249

          TOTAL MULLIKEN AND LOWDIN ATOMIC POPULATIONS
       ATOM         MULL.POP.    CHARGE          LOW.POP.     CHARGE
    1 NITROGEN      8.082615   -1.082615         7.870360   -0.870360
    2 HYDROGEN      0.639128    0.360872         0.709147    0.290853
    3 HYDROGEN      0.639128    0.360872         0.709147    0.290853
    4 HYDROGEN      0.639128    0.360872         0.711346    0.288654

          -------------------------------
          BOND ORDER AND VALENCE ANALYSIS     BOND ORDER THRESHOLD=0.050
          -------------------------------

                   BOND                       BOND                       BOND
  ATOM PAIR DIST  ORDER      ATOM PAIR DIST  ORDER      ATOM PAIR DIST  ORDER
    1   2  0.988  0.847        1   3  0.988  0.847        1   4  0.988  0.847

                       TOTAL       BONDED        FREE
      ATOM            VALENCE     VALENCE     VALENCE
    1 NITROGEN          2.540       2.540      -0.000
    2 HYDROGEN          0.844       0.844      -0.000
    3 HYDROGEN          0.844       0.844      -0.000
    4 HYDROGEN          0.844       0.844      -0.000

          ---------------------
          ELECTROSTATIC MOMENTS
          ---------------------

 POINT   1           X           Y           Z (BOHR)    CHARGE
                -0.000000    0.000000    0.000000       -0.00 (A.U.)
         DX          DY          DZ         /D/  (DEBYE)
    -0.000000    0.000000    0.000000    0.000000
 ...... END OF PROPERTY EVALUATION ......
 CPU     0: STEP CPU TIME=     0.00 TOTAL CPU TIME=          0.0 (      0.0 MIN)
 TOTAL WALL CLOCK TIME=          0.0 SECONDS, CPU UTILIZATION IS    99.93%

 REGENERATING AO INTEGRAL LIST IN C1 POINT GROUP FOR AO-DRIVEN CPHF

          --------------------
          2 ELECTRON INTEGRALS
          --------------------

 THE -PK- OPTION IS OFF, THE INTEGRALS ARE NOT IN SUPERMATRIX FORM.
 STORING   15000 INTEGRALS/RECORD ON DISK, USING 12 BYTES/INTEGRAL.
 TWO ELECTRON INTEGRAL EVALUATION REQUIRES   90451 WORDS OF MEMORY.
 II,JST,KST,LST =  1  1  1  1 NREC =         1 INTLOC =    1
 II,JST,KST,LST =  2  1  1  1 NREC =         1 INTLOC =    2
 II,JST,KST,LST =  3  1  1  1 NREC =         1 INTLOC =   34
 II,JST,KST,LST =  4  1  1  1 NREC =         1 INTLOC =  214
 II,JST,KST,LST =  5  1  1  1 NREC =         1 INTLOC = 1189
 II,JST,KST,LST =  6  1  1  1 NREC =         1 INTLOC = 2365
 II,JST,KST,LST =  7  1  1  1 NREC =         1 INTLOC = 3802
 II,JST,KST,LST =  8  1  1  1 NREC =         1 INTLOC = 5512
 II,JST,KST,LST =  9  1  1  1 NREC =         1 INTLOC = 7564
 II,JST,KST,LST = 10  1  1  1 NREC =         1 INTLOC = 9526
 TOTAL NUMBER OF NONZERO TWO-ELECTRON INTEGRALS =               11829
          1 INTEGRAL RECORDS WERE STORED ON DISK FILE  8.
  ...... END OF TWO-ELECTRON INTEGRALS .....
 CPU     0: STEP CPU TIME=     0.00 TOTAL CPU TIME=          0.0 (      0.0 MIN)
 TOTAL WALL CLOCK TIME=          0.0 SECONDS, CPU UTILIZATION IS    99.92%

     ---------------------------------------------
     1ST AND 2ND INTEGRAL DERIVATIVE CONTRIBUTIONS
     ---------------------------------------------
 ...... END OF 1-ELECTRON GRAD+HESS+FOCKDER ......
 CPU     0: STEP CPU TIME=     0.00 TOTAL CPU TIME=          0.0 (      0.0 MIN)
 TOTAL WALL CLOCK TIME=          0.0 SECONDS, CPU UTILIZATION IS    99.92%

     ----------------------------------------------
     TWO ELECTRON INTEGRAL DERIVATIVE CONTRIBUTIONS
     ----------------------------------------------

      12182 WORDS REQUIRED,    999999 WORDS AVAILABLE
 THE COARSE/FINE SCHWARZ SCREENINGS SKIPPED          0/         0 BLOCKS.
 THE NUMBER OF DERIVATIVE INTEGRAL BLOCKS COMPUTED WAS       360
 CPU     0: STEP CPU TIME=     0.02 TOTAL CPU TIME=          0.0 (      0.0 MIN)
 TOTAL WALL CLOCK TIME=          0.0 SECONDS, CPU UTILIZATION IS    99.94%
 ...... END OF 2-ELECTRON GRAD+HESS+FOCKDER ......
 CPU     0: STEP CPU TIME=     0.00 TOTAL CPU TIME=          0.0 (      0.0 MIN)
 TOTAL WALL CLOCK TIME=          0.0 SECONDS, CPU UTILIZATION IS    99.94%

     -------------------------------------------
     COUPLED-PERTURBED CLOSED SHELL HARTREE-FOCK
     -------------------------------------------
 THE CPHF HAS      80 INDEPENDENT ORBITAL ROTATIONS.
 SOLVING FOR    6 NUCLEAR RESPONSES AND 0 ELECTRIC FIELD RESPONSES
           -FA- WILL USE      2388 WORDS,
           -TA- WILL USE      7269 WORDS,
          -FCK- WILL USE     38614 WORDS,
 -WXY- AND -YA- WILL USE     37788 WORDS,
               THERE ARE    999999 WORDS OF REPLICATED MEMORY AVAILABLE.
        TIME FOR -FA-   =        0.000
        TIME FOR -TA-   =        0.000
        TIME FOR -FCK-  =        0.001
 PRECONDITIONED CONJUGATE GRADIENT SOLVER     CONV. TOLERANCE=5.00E-05
 ITER    RESPONSE ERROR        IMPROVED
   1       3.46644E-01             6
   2       1.11971E-01             6
   3       2.01192E-02             6
   4       2.75357E-03             6
   5       3.66015E-04             6
   6       4.79835E-05             6
 THE CPHF HAS CONVERGED AFTER  6 ITERATIONS.
 IT REQUIRED    36 FOCK-LIKE BUILDS TO FIND THE   6 SYMMETRY UNIQUE RESPONSES.
        TIME FOR -YA-   =        0.002
 ...... DONE WITH CPHF CONTRIBUTIONS ......
 CPU     0: STEP CPU TIME=     0.00 TOTAL CPU TIME=          0.1 (      0.0 MIN)
 TOTAL WALL CLOCK TIME=          0.1 SECONDS, CPU UTILIZATION IS    99.93%

          ---------------
          ENERGY GRADIENT
          ---------------

 UNITS ARE HARTREE/BOHR    E'X               E'Y               E'Z 
    1 NITROGEN         0.000000000       0.000000000       0.000000000
    2 HYDROGEN        -0.000002052       0.000003555       0.000000000
    3 HYDROGEN        -0.000002052      -0.000003555       0.000000000
    4 HYDROGEN         0.000004104       0.000000000       0.000000000

          -------------------------------
          CARTESIAN FORCE CONSTANT MATRIX
          -------------------------------

                                   1                          2
                               NITROGEN                   HYDROGEN  
                          X        Y        Z        X        Y        Z
  1   NITROGEN     X 0.956461 0.000000 0.000000-0.203286 0.200110 0.000000
                   Y 0.000000 0.956461 0.000000 0.200110-0.434353 0.000000
                   Z 0.000000 0.000000-0.089282 0.000000 0.000000 0.029760
  2   HYDROGEN     X-0.203286 0.200110 0.000000 0.193476-0.214386 0.000000
                   Y 0.200110-0.434353 0.000000-0.214386 0.441028 0.000000
                   Z 0.000000 0.000000 0.029760 0.000000 0.000000-0.009919
  3   HYDROGEN     X-0.203286-0.200110 0.000000 0.017269 0.020752 0.000000
                   Y-0.200110-0.434353 0.000000-0.020752-0.015702 0.000000
                   Z 0.000000 0.000000 0.029760 0.000000 0.000000-0.009921
  4   HYDROGEN     X-0.549886 0.000000 0.000000-0.007459-0.006475 0.000000
                   Y 0.000000-0.087753 0.000000 0.035029 0.009026 0.000000
                   Z 0.000000 0.000000 0.029760 0.000000 0.000000-0.009921

                                   3                          4
                               HYDROGEN                   HYDROGEN  
                          X        Y        Z        X        Y        Z
  3   HYDROGEN     X 0.193476 0.214386 0.000000-0.007459-0.035029 0.000000
                   Y 0.214386 0.441028 0.000000 0.006475 0.009026 0.000000
                   Z 0.000000 0.000000-0.009919 0.000000 0.000000-0.009921
  4   HYDROGEN     X-0.007459 0.006475 0.000000 0.564804 0.000000 0.000000
                   Y-0.035029 0.009026 0.000000 0.000000 0.069700 0.000000
                   Z 0.000000 0.000000-0.009921 0.000000 0.000000-0.009919

          ------------------------          ----------------
          DIPOLE DERIVATIVE TENSOR          (DEBYE/ANGSTROM)
          ------------------------          ----------------

        ATOM                 MU-X           MU-Y           MU-Z
     NITROGEN   D/DX    -2.279976908    0.000000000    0.000000000
                D/DY     0.000000000   -2.279976908    0.000000000
                D/DZ     0.000000000    0.000000000   -6.089977098
     HYDROGEN   D/DX     0.761736757    0.003035037    0.000000000
                D/DY     0.003035037    0.758232198    0.000000000
                D/DZ     0.000000000    0.000000000    2.029991213
     HYDROGEN   D/DX     0.761736757   -0.003035037    0.000000000
                D/DY    -0.003035037    0.758232198    0.000000000
                D/DZ     0.000000000    0.000000000    2.029991213
     HYDROGEN   D/DX     0.756479918    0.000000000    0.000000000
                D/DY     0.000000000    0.763489037    0.000000000
                D/DZ     0.000000000    0.000000000    2.029991213

          --------------------------------------------------------
          NORMAL COORDINATE ANALYSIS IN THE HARMONIC APPROXIMATION
          --------------------------------------------------------

          ATOMIC WEIGHTS (AMU)

    1     NITROGEN         14.00307
    2     HYDROGEN          1.00782
    3     HYDROGEN          1.00782
    4     HYDROGEN          1.00782

 * * * WARNING, MODE 1 HAS BEEN CHOSEN AS A VIBRATION
          WHILE MODE 7 IS ASSUMED TO BE A TRANSLATION/ROTATION.
 PLEASE VERIFY THE PROGRAM'S DECISION MANUALLY!


 MODE(S)     1 TO     1 TREATED AS IMAGINARY.

 MODES    2 TO    7 ARE TAKEN AS ROTATIONS AND TRANSLATIONS.

 ANALYZING SYMMETRY OF NORMAL MODES...
 WATCH OUT!! THE COUNTING OF DEGENERATE MODES COUNTS INDIVIDUAL MODES,
 E.G. 2*E MEANS ONE (1) SET OF DEGENERATE E MODES

 --- SYMMETRY FOR NORMAL MODES ---
 INCLUDING TRANSLATION AND ROTATION
    3*A1     1*A2     8*E   
 EXCLUDING TRANSLATION AND ROTATION (SAYVETZ < 0.01)
    2*A1     0*A2     4*E   

     FREQUENCIES IN CM**-1, IR INTENSITIES IN DEBYE**2/AMU-ANGSTROM**2,
     REDUCED MASSES IN AMU.

                            1           2           3           4           5
       FREQUENCY:       974.05 I      0.00        0.00        0.00        7.17  
        SYMMETRY:         A1          E           E           A1          E   
    REDUCED MASS:      1.20668     4.25662     4.25662     4.25660     1.00782
    IR INTENSITY:     14.91516     0.00000     0.00000     0.00000     0.00000

  1   NITROGEN     X -0.00000000  0.24231612 -0.00382984 -0.00000537  0.00000000
                   Y  0.00000000  0.00382984  0.24231612 -0.00000211 -0.00000000
                   Z -0.11261110  0.00000540  0.00000203  0.24234614  0.00000000
  2   HYDROGEN     X -0.00000000  0.24231681 -0.00382968 -0.00000537 -0.00000000
                   Y  0.00000000  0.00383001  0.24231661 -0.00000211 -0.00000000
                   Z  0.52154831  0.00000540  0.00000203  0.24234812  0.70435636
  3   HYDROGEN     X  0.00000000  0.24231680 -0.00383002 -0.00000537  0.00000000
                   Y  0.00000000  0.00382967  0.24231661 -0.00000211 -0.00000000
                   Z  0.52154831  0.00000540  0.00000203  0.24234812 -0.70435636
  4   HYDROGEN     X -0.00000000  0.24231651 -0.00382984 -0.00000537  0.00000000
                   Y  0.00000000  0.00382985  0.24231690 -0.00000211  0.00000000
                   Z  0.52154831  0.00000540  0.00000203  0.24234812 -0.00000000

 TRANS. SAYVETZ    X -0.00000000  4.12580814 -0.06520889 -0.00009140  0.00000000
                   Y  0.00000000  0.06520889  4.12580814 -0.00003595 -0.00000000
                   Z -0.00001286  0.00009196  0.00003450  4.12632342 -0.00000000
               TOTAL  0.00001286  4.12632342  4.12632342  4.12632342  0.00000000

   ROT. SAYVETZ    X  0.00000000 -0.00000000  0.00000000  0.00000000  2.29659740
                   Y -0.00000000  0.00000000  0.00000000 -0.00000000  0.00000000
                   Z  0.00000000 -0.00000000  0.00000000  0.00000000  0.00000000
               TOTAL  0.00000000  0.00000000  0.00000000  0.00000000  2.29659740

                            6           7           8           9          10
       FREQUENCY:         7.17        7.37     1733.67     1733.67     3835.41  
        SYMMETRY:         E           A2          E           E           A1  
    REDUCED MASS:      1.00782     1.00782     1.09156     1.09156     1.00782
    IR INTENSITY:      0.00000     0.00000     0.98187     0.98187     0.00000

  1   NITROGEN     X  0.00000000  0.00000000  0.03633272 -0.06769801  0.00000000
                   Y  0.00000000 -0.00000000 -0.06769801 -0.03633272  0.00000000
                   Z -0.00000000 -0.00000000 -0.00000000  0.00000000  0.00000000
  2   HYDROGEN     X  0.00000000 -0.49805516  0.05315228  0.67096598 -0.28755228
                   Y  0.00000000 -0.28755228 -0.04388832  0.38969746  0.49805516
                   Z -0.40666033 -0.00000000  0.00000000 -0.00000000  0.00000000
  3   HYDROGEN     X -0.00000000  0.49805516 -0.58852602  0.32658482 -0.28755228
                   Y  0.00000000 -0.28755228  0.30049285 -0.25198084 -0.49805516
                   Z -0.40666033  0.00000000 -0.00000000  0.00000000  0.00000000
  4   HYDROGEN     X  0.00000000  0.00000000  0.03055597 -0.05693431  0.57510456
                   Y -0.00000000  0.57510456  0.68401197  0.36710115  0.00000000
                   Z  0.81332066  0.00000000  0.00000000  0.00000000 -0.00000000

 TRANS. SAYVETZ    X  0.00000000  0.00000000  0.00000171 -0.00000318  0.00000000
                   Y  0.00000000 -0.00000000 -0.00000318 -0.00000171 -0.00000000
                   Z -0.00000000 -0.00000000 -0.00000000 -0.00000000  0.00000000
               TOTAL  0.00000000  0.00000000  0.00000361  0.00000361  0.00000000

   ROT. SAYVETZ    X  0.00000000 -0.00000000  0.00000000 -0.00000000  0.00000000
                   Y -2.29659740 -0.00000000 -0.00000000 -0.00000000  0.00000000
                   Z -0.00000000  3.24787919 -0.00000000  0.00000000  0.00000000
               TOTAL  2.29659740  3.24787919  0.00000000  0.00000000  0.00000000

                           11          12
       FREQUENCY:      4049.52     4049.52  
        SYMMETRY:         E           E   
    REDUCED MASS:      1.10517     1.10517
    IR INTENSITY:      1.10867     1.10867

  1   NITROGEN     X -0.07488993 -0.03419870
                   Y  0.03419870 -0.07488993
                   Z  0.00000000  0.00000000
  2   HYDROGEN     X  0.30953994 -0.23221308
                   Y -0.54899162  0.38415675
                   Z  0.00000000  0.00000000
  3   HYDROGEN     X  0.02723099  0.38600047
                   Y  0.06922193  0.66646570
                   Z -0.00000000 -0.00000000
  4   HYDROGEN     X  0.70377410  0.32138042
                   Y  0.00460188 -0.01007741
                   Z  0.00000000 -0.00000000

 TRANS. SAYVETZ    X -0.00000165 -0.00000075
                   Y  0.00000075 -0.00000165
                   Z  0.00000000  0.00000000
               TOTAL  0.00000181  0.00000181

   ROT. SAYVETZ    X  0.00000000  0.00000000
                   Y  0.00000000  0.00000000
                   Z -0.00000000 -0.00000000
               TOTAL  0.00000000  0.00000000

 REFERENCE ON SAYVETZ CONDITIONS - A. SAYVETZ, J.CHEM.PHYS., 7, 383-389(1939).

 NOTE - THE MODES J,K ARE ORTHONORMALIZED ACCORDING TO
 SUM ON I   M(I) * (X(I,J)*X(I,K) + Y(I,J)*Y(I,K) + Z(I,J)*Z(I,K)) = DELTA(J,K)

  MODE FREQ(CM**-1)  SYMMETRY  RED. MASS  IR INTENS.
     1     974.049    A1       1.206681   14.915156
     2       0.003    E        4.256625    0.000000
     3       0.003    E        4.256625    0.000000
     4       0.004    A1       4.256597    0.000000
     5       7.172    E        1.007825    0.000000
     6       7.172    E        1.007825    0.000000
     7       7.371    A2       1.007825    0.000000
     8    1733.666    E        1.091561    0.981871
     9    1733.666    E        1.091561    0.981871
    10    3835.406    A1       1.007825    0.000000
    11    4049.520    E        1.105171    1.108667
    12    4049.520    E        1.105171    1.108667

     -------------------------------
     THERMOCHEMISTRY AT T=  298.15 K
     -------------------------------

 USING IDEAL GAS, RIGID ROTOR, HARMONIC NORMAL MODE APPROXIMATIONS.
 P=  1.01325E+05 PASCAL.
 ALL FREQUENCIES ARE SCALED BY   1.00000
 THE MOMENTS OF INERTIA ARE (IN AMU*BOHR**2)
              5.27436             5.27436            10.54872
 THE ROTATIONAL SYMMETRY NUMBER IS  3.0
 THE ROTATIONAL CONSTANTS ARE (IN GHZ)
    341.85918   341.85918   170.92959
   1 IMAGINARY FREQUENCY VIBRATION(S) IS(ARE) EXCLUDED
     FROM THE FOLLOWING THERMOCHEMICAL ANALYSIS.
      8 -     12 VIBRATIONAL MODES ARE USED IN THERMOCHEMISTRY.
 THE HARMONIC ZERO POINT ENERGY IS (SCALED BY   1.000)
        0.035088 HARTREE/MOLECULE     7700.888726 CM**-1/MOLECULE 
       22.017968 KCAL/MOL               92.123177 KJ/MOL

               Q               LN Q
 ELEC.     1.00000E+00       0.000000
 TRANS.    2.76149E+06      14.831281
 ROT.      6.46383E+01       4.168807
 VIB.      1.00047E+00       0.000465
 TOT.      1.78581E+08      19.000553

              E         H         G         CV        CP        S
           KJ/MOL    KJ/MOL    KJ/MOL   J/MOL-K   J/MOL-K   J/MOL-K
 ELEC.      0.000     0.000     0.000     0.000     0.000     0.000
 TRANS.     3.718     6.197   -36.766    12.472    20.786   144.099
 ROT.       3.718     3.718   -10.334    12.472    12.472    47.133
 VIB.      92.133    92.133    92.122     0.271     0.271     0.036
 TOTAL     99.570   102.049    45.022    25.214    33.529   191.268
 VIB. THERMAL CORRECTION E(T)-E(0) = H(T)-H(0) =         9.651 J/MOL

              E         H         G         CV        CP        S
         KCAL/MOL  KCAL/MOL  KCAL/MOL CAL/MOL-K CAL/MOL-K CAL/MOL-K
 ELEC.      0.000     0.000     0.000     0.000     0.000     0.000
 TRANS.     0.889     1.481    -8.787     2.981     4.968    34.441
 ROT.       0.889     0.889    -2.470     2.981     2.981    11.265
 VIB.      22.020    22.020    22.018     0.065     0.065     0.009
 TOTAL     23.798    24.390    10.760     6.026     8.014    45.714
 VIB. THERMAL CORRECTION E(T)-E(0) = H(T)-H(0) =         2.307 CAL/MOL
 ......END OF NORMAL COORDINATE ANALYSIS......
 CPU     0: STEP CPU TIME=     0.00 TOTAL CPU TIME=          0.1 (      0.0 MIN)
 TOTAL WALL CLOCK TIME=          0.1 SECONDS, CPU UTILIZATION IS    99.94%
               580000  WORDS OF DYNAMIC MEMORY USED
 EXECUTION OF GAMESS TERMINATED NORMALLY 13:17:28 21-JUN-2021    
 DDI: 263640 bytes (0.3 MB / 0 MWords) used by master data server.

 ----------------------------------------
 CPU timing information for all processes
 ========================================
 0: 0.53 + 0.01 = 0.54
 ----------------------------------------
 ddikick.x: exited gracefully.
unset echo
----- accounting info -----
Files used on the master node jackson-Z97X-UD3H-BK were:
-rw-rw-r-- 1 jackson jackson     404 Jun 21 13:17 /home/jackson/Source/GamessRuns/3c_hessian.F05
-rw-rw-r-- 1 jackson jackson  180016 Jun 21 13:17 /home/jackson/Source/GamessRuns/3c_hessian.F08
-rw-rw-r-- 1 jackson jackson 1865040 Jun 21 13:17 /home/jackson/Source/GamessRuns/3c_hessian.F10
-rw-rw-r-- 1 jackson jackson   22272 Jun 21 13:17 /home/jackson/Source/GamessRuns/3c_hessian.F18
ls: No match.
ls: No match.
ls: No match.
Mon 21 Jun 2021 01:17:31 PM CDT
0.1u 0.0s 0:03.29 6.9% 0+0k 0+16io 0pf+0w
