----- GAMESS execution script 'rungms' -----
This job is running on host jackson-Z97X-UD3H-BK
under operating system Linux at Mon 21 Jun 2021 12:55:57 PM CDT
Available scratch disk space (Kbyte units) at beginning of the job is
Filesystem     1K-blocks     Used Available Use% Mounted on
/dev/sda2      114337956 62795528  45691292  58% /
GAMESS temporary binary files will be written to /home/jackson/Source/GamessRuns
GAMESS supplementary output files will be written to /home/jackson/Source/gamess/GamessRunsOutput
Copying input file ./4a.inp to your run's scratch directory...
cp ./4a.inp /home/jackson/Source/GamessRuns/4a.F05
unset echo
/home/jackson/Source/gamess/ddikick.x /home/jackson/Source/gamess/gamess.01.x 4a -ddi 1 1 jackson-Z97X-UD3H-BK -scr /home/jackson/Source/GamessRuns

 Distributed Data Interface kickoff program.
 Initiating 1 compute processes on 1 nodes to run the following command:
 /home/jackson/Source/gamess/gamess.01.x 4a 

          *******************************************************
          *                                                     *
          *          GAMESS VERSION = 30 SEP 2020 (R2)          *
          *                                                     *
          *              doi.org/10.1063/5.0005188              *
          *                                                     *
          **************** 64 BIT LINUX VERSION *****************

  GAMESS HAS BEEN MADE POSSIBLE WITH IMPORTANT CONTRIBUTIONS FROM
  THE FOLLOWING INDIVIDUALS (IN ALPHABETICAL ORDER):

     IVANA ADAMOVIC, CHRISTINE AIKENS, TOMOKO AKAMA,
     YURI ALEXEEV, YURIKO AOKI, POOJA ARORA, TOSHIO ASADA,
     ANDREY ASADCHEV, KIM K. BALDRIDGE, PRADIPTA BANDYOPADHYAY,
     MARIA BARYSZ, ROB BELL, JONATHAN BENTZ, COLLEEN BERTONI,
     JERRY A. BOATZ, BRETT BODE, KURT BRORSEN, KURT R. BRORSEN,
     LAIMUTIS BYTAUTAS, CALEB CARLIN, LAURA CARRINGTON,
     GALINA CHABAN, BENOIT CHAMPAGNE, WEI CHEN, MAHITO CHIBA,
     DAN CHIPMAN, CHEOL HO CHOI, TANNER CULPITT,
     DIPAYAN DATTA, PAUL DAY, ALBERT DEFUSCO,
     NUWAN DESILVA, J. EMILIANO DEUSTUA,
     TIM DUDLEY, MICHEL DUPUIS, STEVEN T. ELBERT,
     DMITRI FEDOROV, ALEX FINDLATER, GRAHAM FLETCHER,
     MARK FREITAG, CHRISTIAN FRIEDL, DAVID GARMER,
     IGOR S. GERASIMOV, KURT GLAESEMANN, MARK S. GORDON,
     JEFFREY GOUR, FENG LONG GU, EMILIE B. GUIDEZ,
     ANASTASIA GUNINA, SHARON HAMMES-SCHIFFER, MASATAKE HARUTA,
     KIMIHIKO HIRAO, YASUHIRO IKABATA, TZVETELIN IORDANOV,
     STEPHAN IRLE, KAZUYA ISHIMURA, JOE IVANIC, FRANK JENSEN,
     JAN H. JENSEN, VISVALDAS KAIRYS, MUNEAKI KAMIYA,
     MICHIO KATOUDA, NAOAKI KAWAKAMI, DAN KEMP, BERNARD KIRTMAN,
     KAZUO KITAURA, MARIUSZ KLOBUKOWSKI, MASATO KOBAYASHI,
     PRAKASHAN KORAMBATH, JACEK KORCHOWIEC, SHIRO KOSEKI,
     KAROL KOWALSKI, JIMMY KROMANN, STANISLAW KUCHARSKI,
     HENRY KURTZ, SAROM SOK LEANG, HUI LI, SHUHUA LI, WEI LI,
     JESSE LUTZ, ALEKSANDR O. LYKHIN, MARCIN MAKOWSKI,
     JOANI MATO, NIKITA MATSUNAGA, BENEDETTA MENNUCCI,
     GRANT MERRILL, NORIYUKI MINEZAWA, VLADIMIR MIRONOV,
     EISAKU MIYOSHI, JOHN A. MONTGOMERY JR., HIROTOSHI MORI,
     JONATHAN MULLIN, MONIKA MUSIAL, SHIGERU NAGASE,
     TAKESHI NAGATA, HIROMI NAKAI, TAKAHITO NAKAJIMA,
     YUYA NAKAJIMA, HARUYUKI NAKANO, HIROYA NAKATA, SEAN NEDD,
     HEATHER NETZLOFF, KIET A. NGUYEN, YOSHIO NISHIMOTO,
     BOSILJKA NJEGIC, RYAN OLSON, MIKE PAK, ROBERTO PEVERATI,
     BUU PHAM, PIOTR PIECUCH, ANNA POMOGAEVA, DAVID POOLE,
     SPENCER PRUITT, OLIVIER QUINET, LUKE ROSKOP,
     KLAUS RUEDENBERG, ANDREW SAND, TOSAPORN SATTASATHUCHANA,
     NOZOMI SAWADA, MICHAEL W. SCHMIDT, PATRICK E. SCHNEIDER,
     JUNJI SEINO, PRACHI SHARMA, JUN SHEN, JIM SHOEMAKER,
     YINAN SHU, DEJUN SI, JONATHAN SKONE, LYUDMILA SLIPCHENKO,
     TONY SMITH, JIE SONG, MARK SPACKMAN, CASPER STEINMANN,
     WALT STEVENS, PEIFENG SU, SHUJUN SU, CHET SWALINA,
     TETSUYA TAKETSUGU, ZHEN TAO, NANDUN THELLAMUREGE
     SEIKEN TOKURA, JACOPO TOMASI, TSUGUKI TOUMA, TAKAO TSUNEDA,
     HIROAKI UMEDA, JORGE LUIS GALVEZ VALLEJO, YALI WANG,
     SIMON WEBB, AARON WEST, THERESA L. WINDUS, MARTA WLOCH,
     PENG XU, KIYOSHI YAGI, SUSUMU YANAGISAWA, YANG YANG,
     SOOHAENG YOO, TAKESHI YOSHIKAWA, FEDERICO ZAHARIEV,
     TOBY ZENG

  WHO ARE SUPPORTED BY THEIR INSTITUTION/UNIVERSITY/COMPANY/GROUP
  (IN ALPHABETICAL ORDER):

     EP ANALYTICS, FACULTES UNIVERSITAIRES NOTRE-DAME DE LA PAIX,
     INSTITUTE FOR MOLECULAR SCIENCE, IOWA STATE UNIVERSITY,
     JACKSON STATE UNIVERSITY, JOHANNES KEPLER UNIVERSITY LINZ,
     KYUSHU UNIVERSITY, MICHIGAN STATE UNIVERSITY,
     MIE UNIVERSITY, MOSCOW STATE UNIVERSITY,
     N. COPERNICUS UNIVERSITY, NAGOYA UNIVERSITY,
     NANJING UNIVERSITY, NAT. INST. OF ADVANCED INDUSTRIAL
     SCIENCE AND TECHNOLOGY, NATIONAL INST. OF STANDARDS AND
     TECHNOLOGY, NESMEYANOV INSTITUTE OF ORGANOELEMENT COMPOUNDS
     OF RUSSIAN ACADEMY OF SCIENCES, OSAKA PREFECTURE UNIVERSITY,
     PENNSYLVANIA STATE UNIVERSITY, TOKYO INSTITUTE OF TECHNOLOGY,
     UNIVERSITY OF AARHUS, UNIVERSITY OF ALBERTA,
     UNIVERSITY OF CALIFORNIA AT SANTA BARBARA,
     UNIVERSITY OF COPENHAGEN, UNIVERSITY OF IOWA,
     UNIVERSITY OF MEMPHIS, UNIVERSITY OF MINNESOTA,
     UNIVERSITY OF NEBRASKA, UNIVERSITY OF NEW ENGLAND,
     UNIVERSITY OF NOTRE DAME, UNIVERSITY OF PISA,
     UNIVERSITY OF SILESIA, UNIVERSITY OF TOKYO,
     UNIVERSITY OF ZURICH, WASEDA UNIVERSITY, YALE UNIVERSITY

  GAMESS SOFTWARE MANAGEMENT TEAM FOR THIS RELEASE:
     MARK S. GORDON (TEAM LEAD),
     BRETT BODE (SENIOR ADVISOR),
     GIUSEPPE BARCA,
     COLLEEN BERTONI,
     KRISTOPHER KEIPERT (ADVISOR),
     SAROM S. LEANG (DEVELOPMENT LEAD),
     BUU PHAM,
     JORGE LUIS GALVEZ VALLEJO (WEBSITE ADMINISTRATOR),
     PENG XU

 EXECUTION OF GAMESS BEGUN 12:55:58 21-JUN-2021    

            ECHO OF THE FIRST FEW INPUT CARDS -
 INPUT CARD>! Assignment 1 from Dr Gordon                                                   
 INPUT CARD>! Optimize NH3 geometry with HF, and STO-3G basis set                           
 INPUT CARD>! use C2v symmetry                                                              
 INPUT CARD>!                                                                               
 INPUT CARD> $CONTRL SCFTYP=RHF RUNTYP=OPTIMIZE $END                                        
 INPUT CARD> $SYSTEM TIMLIM=1 MEMDDI=1 PARALL=.TRUE. $END                                   
 INPUT CARD> $BASIS  GBASIS=STO NGAUSS=3 $END                                               
 INPUT CARD> $DATA                                                                          
 INPUT CARD>STO-3G - NH3                                                                    
 INPUT CARD>Dnh      3                                                                      
 INPUT CARD>                                                                                
 INPUT CARD>NITROGEN   7.0                                                                  
 INPUT CARD>HYDROGEN   1.0   1.02000  0.00000    0.00000                                    
 INPUT CARD> $END                                                                           
 INPUT CARD>                                                                                
 INPUT CARD>                                                                                
 INPUT CARD>                                                                                
    1000000 WORDS OF MEMORY AVAILABLE

     BASIS OPTIONS
     -------------
     GBASIS=STO          IGAUSS=       3      POLAR=NONE    
     NDFUNC=       0     NFFUNC=       0     DIFFSP=       F
     NPFUNC=       0      DIFFS=       F     BASNAM=        


     RUN TITLE
     ---------
 STO-3G - NH3                                                                    

 THE POINT GROUP OF THE MOLECULE IS DNH     
 THE ORDER OF THE PRINCIPAL AXIS IS     3

 ATOM      ATOMIC                      COORDINATES (BOHR)
           CHARGE         X                   Y                   Z
 NITROGEN    7.0     0.0000000000        0.0000000000        0.0000000000
 HYDROGEN    1.0    -0.9637602537        1.6692817258        0.0000000000
 HYDROGEN    1.0    -0.9637602537       -1.6692817258        0.0000000000
 HYDROGEN    1.0     1.9275205075        0.0000000000        0.0000000000

          INTERNUCLEAR DISTANCES (ANGS.)
          ------------------------------

                1 NITR       2 HYDR       3 HYDR       4 HYDR  

   1 NITR    0.0000000    1.0200000 *  1.0200000 *  1.0200000 *
   2 HYDR    1.0200000 *  0.0000000    1.7666918 *  1.7666918 *
   3 HYDR    1.0200000 *  1.7666918 *  0.0000000    1.7666918 *
   4 HYDR    1.0200000 *  1.7666918 *  1.7666918 *  0.0000000  

  * ... LESS THAN  3.000


     ATOMIC BASIS SET
     ----------------
 THE CONTRACTED PRIMITIVE FUNCTIONS HAVE BEEN UNNORMALIZED
 THE CONTRACTED BASIS FUNCTIONS ARE NOW NORMALIZED TO UNITY

  SHELL TYPE  PRIMITIVE        EXPONENT          CONTRACTION COEFFICIENT(S)

 NITROGEN  

      1   S       1            99.1061690    0.154328967295
      1   S       2            18.0523124    0.535328142282
      1   S       3             4.8856602    0.444634542185

      2   L       4             3.7804559   -0.099967229187    0.155916274999
      2   L       5             0.8784966    0.399512826089    0.607683718598
      2   L       6             0.2857144    0.700115468880    0.391957393099

 HYDROGEN  

      5   S       7             3.4252509    0.154328967295
      5   S       8             0.6239137    0.535328142282
      5   S       9             0.1688554    0.444634542185

 TOTAL NUMBER OF BASIS SET SHELLS             =    5
 NUMBER OF CARTESIAN GAUSSIAN BASIS FUNCTIONS =    8
 NUMBER OF ELECTRONS                          =   10
 CHARGE OF MOLECULE                           =    0
 SPIN MULTIPLICITY                            =    1
 NUMBER OF OCCUPIED ORBITALS (ALPHA)          =    5
 NUMBER OF OCCUPIED ORBITALS (BETA )          =    5
 TOTAL NUMBER OF ATOMS                        =    4
 THE NUCLEAR REPULSION ENERGY IS       11.7934157999

     $CONTRL OPTIONS
     ---------------
 SCFTYP=RHF          RUNTYP=OPTIMIZE     EXETYP=RUN     
 MPLEVL=       0     CITYP =NONE         CCTYP =NONE         VBTYP =NONE    
 DFTTYP=NONE         TDDFT =NONE    
 MULT  =       1     ICHARG=       0     NZVAR =       0     COORD =UNIQUE  
 PP    =NONE         RELWFN=NONE         LOCAL =NONE         NUMGRD=       F
 ISPHER=      -1     NOSYM =       0     MAXIT =      30     UNITS =ANGS    
 PLTORB=       F     MOLPLT=       F     AIMPAC=       F     FRIEND=        
 NPRINT=       7     IREST =       0     GEOM  =INPUT   
 NORMF =       0     NORMP =       0     ITOL  =      20     ICUT  =       9
 INTTYP=BEST         GRDTYP=BEST         QMTTOL= 1.0E-06

     $SYSTEM OPTIONS
     ---------------
  REPLICATED MEMORY=     1000000 WORDS (ON EVERY NODE).
 DISTRIBUTED MEMDDI=           1 MILLION WORDS IN AGGREGATE,
 MEMDDI DISTRIBUTED OVER   1 PROCESSORS IS     1000000 WORDS/PROCESSOR.
 TOTAL MEMORY REQUESTED ON EACH PROCESSOR=     2000000 WORDS.
 TIMLIM=           1.00 MINUTES, OR       0.0 DAYS.
 PARALL= T  BALTYP=  DLB     KDIAG=    0  COREFL= F
 MXSEQ2=     300 MXSEQ3=     150  mem10=         0  mem22=         0

 Using Gaussians for PCM contribution to MEP, params: 0.10000E+01 0.10000E-07

          ----------------
          PROPERTIES INPUT
          ----------------

     MOMENTS            FIELD           POTENTIAL          DENSITY
 IEMOM =       1   IEFLD =       0   IEPOT =       0   IEDEN =       0
 WHERE =COMASS     WHERE =NUCLEI     WHERE =NUCLEI     WHERE =NUCLEI  
 OUTPUT=BOTH       OUTPUT=BOTH       OUTPUT=BOTH       OUTPUT=BOTH    
 IEMINT=       0   IEFINT=       0                     IEDINT=       0
                                                       MORB  =       0
          EXTRAPOLATION IN EFFECT
 ORBITAL PRINTING OPTION: NPREO=     1     8     2     1

     -------------------------------
     INTEGRAL TRANSFORMATION OPTIONS
     -------------------------------
     NWORD  =            0
     CUTOFF = 1.0E-09     MPTRAN =       0
     DIRTRF =       F     AOINTS =DUP     

          ----------------------
          INTEGRAL INPUT OPTIONS
          ----------------------
 NOPK  =       1 NORDER=       0 SCHWRZ=       F

     ------------------------------------------
     THE POINT GROUP IS DNH, NAXIS= 3, ORDER=12
     ------------------------------------------

     DIMENSIONS OF THE SYMMETRY SUBSPACES ARE
 A1' =    3     A1" =    0     A2' =    0     A2" =    1     E'' =    0
 E'  =    2

 ..... DONE SETTING UP THE RUN .....
 CPU     0: STEP CPU TIME=     0.01 TOTAL CPU TIME=          0.0 (      0.0 MIN)
 TOTAL WALL CLOCK TIME=          0.0 SECONDS, CPU UTILIZATION IS   100.01%


          -----------------------------
          STATIONARY POINT LOCATION RUN
          -----------------------------

 OBTAINING INITIAL HESSIAN, HESS=GUESS   
 CARTESIAN COORDINATE OPTIMIZATION USING BADGER'S RULE FORCE CONSTANT GUESS

          PARAMETERS CONTROLLING GEOMETRY SEARCH ARE
          METHOD =QA                  UPHESS =BFGS    
          NNEG   =         0          NFRZ   =         0
          NSTEP  =        50          IFOLOW =         1
          HESS   =GUESS               RESTAR =         F
          IHREP  =         0          HSSEND =         F
          NPRT   =         0          NPUN   =         0
          OPTTOL = 1.000E-04          RMIN   = 1.500E-03
          RMAX   = 1.000E-01          RLIM   = 7.000E-02
          DXMAX  = 3.000E-01          PURIFY =         F
          MOVIE  =         F          TRUPD  =         T
          TRMAX  = 5.000E-01          TRMIN  = 5.000E-02
          ITBMAT =         5          STPT   =         F
          STSTEP = 1.000E-02          PROJCT=          T

 BEGINNING GEOMETRY SEARCH POINT NSERCH=   0 ...

 COORDINATES OF SYMMETRY UNIQUE ATOMS (ANGS)
   ATOM   CHARGE       X              Y              Z
 ------------------------------------------------------------
 NITROGEN    7.0   0.0000000000   0.0000000000   0.0000000000
 HYDROGEN    1.0   1.0200000000   0.0000000000   0.0000000000
 COORDINATES OF ALL ATOMS ARE (ANGS)
   ATOM   CHARGE       X              Y              Z
 ------------------------------------------------------------
 NITROGEN    7.0   0.0000000000   0.0000000000   0.0000000000
 HYDROGEN    1.0  -0.5100000000   0.8833459119   0.0000000000
 HYDROGEN    1.0  -0.5100000000  -0.8833459119   0.0000000000
 HYDROGEN    1.0   1.0200000000   0.0000000000   0.0000000000

          ********************
          1 ELECTRON INTEGRALS
          ********************
 ...... END OF ONE-ELECTRON INTEGRALS ......
 CPU     0: STEP CPU TIME=     0.00 TOTAL CPU TIME=          0.0 (      0.0 MIN)
 TOTAL WALL CLOCK TIME=          0.0 SECONDS, CPU UTILIZATION IS    99.99%

          -------------
          GUESS OPTIONS
          -------------
          GUESS =HUCKEL            NORB  =       0          NORDER=       0
          MIX   =       F          PRTMO =       F          PUNMO =       F
          TOLZ  = 1.0E-08          TOLE  = 1.0E-05
          SYMDEN=       F          PURIFY=       F

 INITIAL GUESS ORBITALS GENERATED BY HUCKEL   ROUTINE.
 HUCKEL GUESS REQUIRES      3444 WORDS.

 SYMMETRIES FOR INITIAL GUESS ORBITALS FOLLOW.   BOTH SET(S).
     5 ORBITALS ARE OCCUPIED (    1 CORE ORBITALS).
     2=A1'      3=E'       4=E'       5=A2"      6=E'       7=E'       8=A1' 
 ...... END OF INITIAL ORBITAL SELECTION ......
 CPU     0: STEP CPU TIME=     0.00 TOTAL CPU TIME=          0.0 (      0.0 MIN)
 TOTAL WALL CLOCK TIME=          0.0 SECONDS, CPU UTILIZATION IS    99.86%

                    ----------------------
                    AO INTEGRAL TECHNOLOGY
                    ----------------------
     S,P,L SHELL ROTATED AXIS INTEGRALS, REPROGRAMMED BY
        KAZUYA ISHIMURA (IMS) AND JOSE SIERRA (SYNSTAR).
     S,P,D,L SHELL ROTATED AXIS INTEGRALS PROGRAMMED BY
        KAZUYA ISHIMURA (INSTITUTE FOR MOLECULAR SCIENCE).
     S,P,D,F,G SHELL TO TOTAL QUARTET ANGULAR MOMENTUM SUM 5,
        ERIC PROGRAM BY GRAHAM FLETCHER (ELORET AND NASA ADVANCED
        SUPERCOMPUTING DIVISION, AMES RESEARCH CENTER).
     S,P,D,F,G,L SHELL GENERAL RYS QUADRATURE PROGRAMMED BY
        MICHEL DUPUIS (PACIFIC NORTHWEST NATIONAL LABORATORY).

          --------------------
          2 ELECTRON INTEGRALS
          --------------------

 THE -PK- OPTION IS OFF, THE INTEGRALS ARE NOT IN SUPERMATRIX FORM.
 STORING   15000 INTEGRALS/RECORD ON DISK, USING 12 BYTES/INTEGRAL.
 TWO ELECTRON INTEGRAL EVALUATION REQUIRES   89371 WORDS OF MEMORY.
 II,JST,KST,LST =  1  1  1  1 NREC =         1 INTLOC =    1
 II,JST,KST,LST =  2  1  1  1 NREC =         1 INTLOC =    2
 II,JST,KST,LST =  3  1  1  1 NREC =         1 INTLOC =   34
 II,JST,KST,LST =  4  1  1  1 NREC =         1 INTLOC =   34
 II,JST,KST,LST =  5  1  1  1 NREC =         1 INTLOC =   34
 TOTAL NUMBER OF NONZERO TWO-ELECTRON INTEGRALS =                 125
          1 INTEGRAL RECORDS WERE STORED ON DISK FILE  8.
  ...... END OF TWO-ELECTRON INTEGRALS .....
 CPU     0: STEP CPU TIME=     0.01 TOTAL CPU TIME=          0.0 (      0.0 MIN)
 TOTAL WALL CLOCK TIME=          0.0 SECONDS, CPU UTILIZATION IS    99.31%

          --------------------------
                 RHF SCF CALCULATION
          --------------------------

     NUCLEAR ENERGY =        11.7934157999
     MAXIT =   30     NPUNCH=    2
     EXTRAP=T  DAMP=F  SHIFT=F  RSTRCT=F  DIIS=F  DEM=F  SOSCF=F
     DENSITY MATRIX CONV=  1.00E-05
     MEMORY REQUIRED FOR RHF ITERS=     30560 WORDS.

 ITER EX DEM     TOTAL ENERGY        E CHANGE  DENSITY CHANGE    DIIS ERROR
   1  0  0      -55.3568341406   -55.3568341406   0.413882756   0.000000000
   2  1  0      -55.4335917276    -0.0767575870   0.071462550   0.000000000
   3  2  0      -55.4367475589    -0.0031558313   0.025818273   0.000000000
   4  3  0      -55.4369689329    -0.0002213739   0.006361495   0.000000000
   5  0  0      -55.4369852951    -0.0000163623   0.002492220   0.000000000
   6  1  0      -55.4369866110    -0.0000013159   0.000002795   0.000000000
   7  2  0      -55.4369866110    -0.0000000000   0.000000759   0.000000000
   8  3  0      -55.4369866110    -0.0000000000   0.000000209   0.000000000

          -----------------
          DENSITY CONVERGED
          -----------------
     TIME TO FORM FOCK OPERATORS=       0.0 SECONDS (       0.0 SEC/ITER)
     TIME TO SOLVE SCF EQUATIONS=       0.0 SECONDS (       0.0 SEC/ITER)

 FINAL RHF ENERGY IS      -55.4369866110 AFTER   8 ITERATIONS

          ------------
          EIGENVECTORS
          ------------

                      1          2          3          4          5
                  -15.2577    -1.0352    -0.5698    -0.5698    -0.3086
                     A1'        A1'        E'         E'         A2" 
    1  N  1  S    0.993348  -0.223061   0.000000   0.000000   0.000000
    2  N  1  S    0.031833   0.744272   0.000000   0.000000   0.000000
    3  N  1  X   -0.000000   0.000000   0.583204   0.000000   0.000000
    4  N  1  Y   -0.000000   0.000000   0.000000   0.583204   0.000000
    5  N  1  Z   -0.000000   0.000000   0.000000   0.000000   1.000000
    6  H  2  S   -0.006396   0.169654  -0.241793   0.418798   0.000000
    7  H  3  S   -0.006396   0.169654  -0.241793  -0.418798   0.000000
    8  H  4  S   -0.006396   0.169654   0.483586   0.000000   0.000000

                      6          7          8
                    0.5787     0.7849     0.7849
                     A1'        E'         E'  
    1  N  1  S   -0.200645   0.000000   0.000000
    2  N  1  S    1.320794   0.000000   0.000000
    3  N  1  X   -0.000000   1.090587   0.000000
    4  N  1  Y   -0.000000   0.000000   1.090587
    5  N  1  Z   -0.000000   0.000000   0.000000
    6  H  2  S   -0.716468   0.499695  -0.865497
    7  H  3  S   -0.716468   0.499695   0.865497
    8  H  4  S   -0.716468  -0.999390   0.000000
 ...... END OF RHF CALCULATION ......
 CPU     0: STEP CPU TIME=     0.00 TOTAL CPU TIME=          0.0 (      0.0 MIN)
 TOTAL WALL CLOCK TIME=          0.0 SECONDS, CPU UTILIZATION IS    99.32%

     ----------------------------------------------------------------
     PROPERTY VALUES FOR THE RHF   SELF-CONSISTENT FIELD WAVEFUNCTION
     ----------------------------------------------------------------

          -----------------
          ENERGY COMPONENTS
          -----------------

         WAVEFUNCTION NORMALIZATION =       1.0000000000

                ONE ELECTRON ENERGY =     -98.9788273968
                TWO ELECTRON ENERGY =      31.7484249859
           NUCLEAR REPULSION ENERGY =      11.7934157999
                                      ------------------
                       TOTAL ENERGY =     -55.4369866110

 ELECTRON-ELECTRON POTENTIAL ENERGY =      31.7484249859
  NUCLEUS-ELECTRON POTENTIAL ENERGY =    -154.0212782486
   NUCLEUS-NUCLEUS POTENTIAL ENERGY =      11.7934157999
                                      ------------------
             TOTAL POTENTIAL ENERGY =    -110.4794374628
               TOTAL KINETIC ENERGY =      55.0424508518
                 VIRIAL RATIO (V/T) =       2.0071678451

  ...... PI ENERGY ANALYSIS ......

 ENERGY ANALYSIS:
            FOCK ENERGY=    -35.4819774066
          BARE H ENERGY=    -98.9788273968
     ELECTRONIC ENERGY =    -67.2304024017
         KINETIC ENERGY=     55.0424508518
          N-N REPULSION=     11.7934157999
           TOTAL ENERGY=    -55.4369866018
        SIGMA PART(1+2)=    -60.6168079729
               (K,V1,2)=     51.2437346101   -137.6124841997     25.7519416168
           PI PART(1+2)=     -6.6135944288
               (K,V1,2)=      3.7987162417    -16.4087940489      5.9964833783
  SIGMA SKELETON, ERROR=    -48.8233921729      0.0000000000
             MIXED PART= 0.00000E+00 0.00000E+00 0.00000E+00 0.00000E+00
 ...... END OF PI ENERGY ANALYSIS ......

          ---------------------------------------
          MULLIKEN AND LOWDIN POPULATION ANALYSES
          ---------------------------------------

     ATOMIC MULLIKEN POPULATION IN EACH MOLECULAR ORBITAL

                      1          2          3          4          5

                  2.000000   2.000000   2.000000   2.000000   2.000000

    1             2.002453   1.409471   1.049949   1.049949   2.000000
    2            -0.000818   0.196843   0.158342   0.475025   0.000000
    3            -0.000818   0.196843   0.158342   0.475025   0.000000
    4            -0.000818   0.196843   0.633367   0.000000   0.000000

               ----- POPULATIONS IN EACH AO -----
                             MULLIKEN      LOWDIN
              1  N  1  S      1.99462     1.99003
              2  N  1  S      1.41731     1.21369
              3  N  1  X      1.04995     1.07117
              4  N  1  Y      1.04995     1.07117
              5  N  1  Z      2.00000     2.00000
              6  H  2  S      0.82939     0.88465
              7  H  3  S      0.82939     0.88465
              8  H  4  S      0.82939     0.88465

          ----- MULLIKEN ATOMIC OVERLAP POPULATIONS -----
          (OFF-DIAGONAL ELEMENTS NEED TO BE MULTIPLIED BY 2)

             1           2           3           4

    1    6.4170575
    2    0.3649219   0.5253581
    3    0.3649219  -0.0304438   0.5253581
    4    0.3649219  -0.0304438  -0.0304438   0.5253581

          TOTAL MULLIKEN AND LOWDIN ATOMIC POPULATIONS
       ATOM         MULL.POP.    CHARGE          LOW.POP.     CHARGE
    1 NITROGEN      7.511823   -0.511823         7.346050   -0.346050
    2 HYDROGEN      0.829392    0.170608         0.884650    0.115350
    3 HYDROGEN      0.829392    0.170608         0.884650    0.115350
    4 HYDROGEN      0.829392    0.170608         0.884650    0.115350

          -------------------------------
          BOND ORDER AND VALENCE ANALYSIS     BOND ORDER THRESHOLD=0.050
          -------------------------------

                   BOND                       BOND                       BOND
  ATOM PAIR DIST  ORDER      ATOM PAIR DIST  ORDER      ATOM PAIR DIST  ORDER
    1   2  1.020  0.942        1   3  1.020  0.942        1   4  1.020  0.942

                       TOTAL       BONDED        FREE
      ATOM            VALENCE     VALENCE     VALENCE
    1 NITROGEN          2.825       2.825      -0.000
    2 HYDROGEN          0.971       0.971      -0.000
    3 HYDROGEN          0.971       0.971      -0.000
    4 HYDROGEN          0.971       0.971      -0.000

          ---------------------
          ELECTROSTATIC MOMENTS
          ---------------------

 POINT   1           X           Y           Z (BOHR)    CHARGE
                -0.000000    0.000000    0.000000       -0.00 (A.U.)
         DX          DY          DZ         /D/  (DEBYE)
    -0.000000    0.000000    0.000000    0.000000
 ...... END OF PROPERTY EVALUATION ......
 CPU     0: STEP CPU TIME=     0.00 TOTAL CPU TIME=          0.0 (      0.0 MIN)
 TOTAL WALL CLOCK TIME=          0.0 SECONDS, CPU UTILIZATION IS    99.38%

 BEGINNING ONE ELECTRON GRADIENT...
 ..... END OF 1-ELECTRON GRADIENT ......
 CPU     0: STEP CPU TIME=     0.00 TOTAL CPU TIME=          0.0 (      0.0 MIN)
 TOTAL WALL CLOCK TIME=          0.0 SECONDS, CPU UTILIZATION IS    99.40%

          ----------------------
          GRADIENT OF THE ENERGY
          ----------------------
 THE COARSE/FINE SCHWARZ SCREENINGS SKIPPED            0/           0 BLOCKS.
 THE NUMBER OF GRADIENT INTEGRAL BLOCKS COMPUTED WAS        31
 ...... END OF 2-ELECTRON GRADIENT ......
 CPU     0: STEP CPU TIME=     0.00 TOTAL CPU TIME=          0.0 (      0.0 MIN)
 TOTAL WALL CLOCK TIME=          0.0 SECONDS, CPU UTILIZATION IS    99.41%

          NSERCH=  0     ENERGY=     -55.4369866

                                 -----------------------
                                 GRADIENT (HARTREE/BOHR)
                                 -----------------------
        ATOM     ZNUC       DE/DX         DE/DY         DE/DZ
 --------------------------------------------------------------
    1  NITROGEN     7.0     0.0000000     0.0000000     0.0000000
    2  HYDROGEN     1.0    -0.0081335     0.0140877     0.0000000
    3  HYDROGEN     1.0    -0.0081335    -0.0140877     0.0000000
    4  HYDROGEN     1.0     0.0162671     0.0000000     0.0000000

          MAXIMUM GRADIENT = 0.0162671    RMS GRADIENT = 0.0081335

 NSERCH:   0  E=      -55.4369866110  GRAD. MAX=  0.0162671  R.M.S.=  0.0081335

          FORCE CONSTANT MATRIX NOT UPDATED --- TAKING FIRST STEP
          MIN SEARCH, CORRECT HESSIAN, TRYING PURE NR STEP
               NR STEP HAS LENGTH         =   0.061492
          RADIUS OF STEP TAKEN=   0.06149  CURRENT TRUST RADIUS=   0.30000

 BEGINNING GEOMETRY SEARCH POINT NSERCH=   1 ...

 COORDINATES OF SYMMETRY UNIQUE ATOMS (ANGS)
   ATOM   CHARGE       X              Y              Z
 ------------------------------------------------------------
 NITROGEN    7.0   0.0000000000   0.0000000000   0.0000000000
 HYDROGEN    1.0   1.0012128461   0.0000000000   0.0000000000
 COORDINATES OF ALL ATOMS ARE (ANGS)
   ATOM   CHARGE       X              Y              Z
 ------------------------------------------------------------
 NITROGEN    7.0   0.0000000000   0.0000000000   0.0000000000
 HYDROGEN    1.0  -0.5006064230   0.8670757593   0.0000000000
 HYDROGEN    1.0  -0.5006064230  -0.8670757593   0.0000000000
 HYDROGEN    1.0   1.0012128461   0.0000000000   0.0000000000

          INTERNUCLEAR DISTANCES (ANGS.)
          ------------------------------

                1 NITR       2 HYDR       3 HYDR       4 HYDR  

   1 NITR    0.0000000    1.0012128 *  1.0012128 *  1.0012128 *
   2 HYDR    1.0012128 *  0.0000000    1.7341515 *  1.7341515 *
   3 HYDR    1.0012128 *  1.7341515 *  0.0000000    1.7341515 *
   4 HYDR    1.0012128 *  1.7341515 *  1.7341515 *  0.0000000  

  * ... LESS THAN  3.000

 ...... END OF ONE-ELECTRON INTEGRALS ......
 CPU     0: STEP CPU TIME=     0.00 TOTAL CPU TIME=          0.0 (      0.0 MIN)
 TOTAL WALL CLOCK TIME=          0.0 SECONDS, CPU UTILIZATION IS    99.41%
 TOTAL NUMBER OF NONZERO TWO-ELECTRON INTEGRALS =                 125
          1 INTEGRAL RECORDS WERE STORED ON DISK FILE  8.
  ...... END OF TWO-ELECTRON INTEGRALS .....
 CPU     0: STEP CPU TIME=     0.00 TOTAL CPU TIME=          0.0 (      0.0 MIN)
 TOTAL WALL CLOCK TIME=          0.0 SECONDS, CPU UTILIZATION IS    99.42%

          --------------------------
                 RHF SCF CALCULATION
          --------------------------
     DENSITY MATRIX CONV=  5.00E-05

 ITER EX DEM     TOTAL ENERGY        E CHANGE  DENSITY CHANGE    DIIS ERROR
   1  0  0      -55.4375284558   -55.4375284558   0.009257608   0.000000000
   2  1  0      -55.4376022559    -0.0000738001   0.003044087   0.000000000
   3  2  0      -55.4376044812    -0.0000022254   0.000487183   0.000000000
   4  3  0      -55.4376046112    -0.0000001300   0.000166415   0.000000000
   5  0  0      -55.4376046203    -0.0000000091   0.000056707   0.000000000
   6  1  0      -55.4376046210    -0.0000000007   0.000000037   0.000000000
   7  2  0      -55.4376046210    -0.0000000000   0.000000010   0.000000000

          -----------------
          DENSITY CONVERGED
          -----------------
     TIME TO FORM FOCK OPERATORS=       0.0 SECONDS (       0.0 SEC/ITER)
     TIME TO SOLVE SCF EQUATIONS=       0.0 SECONDS (       0.0 SEC/ITER)

 FINAL RHF ENERGY IS      -55.4376046210 AFTER   7 ITERATIONS
 ...... END OF RHF CALCULATION ......
 CPU     0: STEP CPU TIME=     0.00 TOTAL CPU TIME=          0.0 (      0.0 MIN)
 TOTAL WALL CLOCK TIME=          0.0 SECONDS, CPU UTILIZATION IS    99.45%
 ..... END OF 1-ELECTRON GRADIENT ......
 CPU     0: STEP CPU TIME=     0.00 TOTAL CPU TIME=          0.0 (      0.0 MIN)
 TOTAL WALL CLOCK TIME=          0.0 SECONDS, CPU UTILIZATION IS    99.45%
 ...... END OF 2-ELECTRON GRADIENT ......
 CPU     0: STEP CPU TIME=     0.00 TOTAL CPU TIME=          0.0 (      0.0 MIN)
 TOTAL WALL CLOCK TIME=          0.0 SECONDS, CPU UTILIZATION IS    99.46%

          NSERCH=  1     ENERGY=     -55.4376046

                                 -----------------------
                                 GRADIENT (HARTREE/BOHR)
                                 -----------------------
        ATOM     ZNUC       DE/DX         DE/DY         DE/DZ
 --------------------------------------------------------------
    1  NITROGEN     7.0     0.0000000     0.0000000     0.0000000
    2  HYDROGEN     1.0     0.0025194    -0.0043637     0.0000000
    3  HYDROGEN     1.0     0.0025194     0.0043637     0.0000000
    4  HYDROGEN     1.0    -0.0050387     0.0000000     0.0000000

          MAXIMUM GRADIENT = 0.0050387    RMS GRADIENT = 0.0025194

 NSERCH:   1  E=      -55.4376046210  GRAD. MAX=  0.0050387  R.M.S.=  0.0025194

          HESSIAN UPDATED USING THE BFGS FORMULA
             ACTUAL ENERGY CHANGE WAS  -0.0006180099
          PREDICTED ENERGY CHANGE WAS  -0.0008662843 RATIO=  0.713
          MIN SEARCH, CORRECT HESSIAN, TRYING PURE NR STEP
               NR STEP HAS LENGTH         =   0.014543
          RADIUS OF STEP TAKEN=   0.01454  CURRENT TRUST RADIUS=   0.06149

 BEGINNING GEOMETRY SEARCH POINT NSERCH=   2 ...

 COORDINATES OF SYMMETRY UNIQUE ATOMS (ANGS)
   ATOM   CHARGE       X              Y              Z
 ------------------------------------------------------------
 NITROGEN    7.0  -0.0000000000   0.0000000000   0.0000000000
 HYDROGEN    1.0   1.0056559325   0.0000000000   0.0000000000
 COORDINATES OF ALL ATOMS ARE (ANGS)
   ATOM   CHARGE       X              Y              Z
 ------------------------------------------------------------
 NITROGEN    7.0  -0.0000000000   0.0000000000   0.0000000000
 HYDROGEN    1.0  -0.5028279663   0.8709235850   0.0000000000
 HYDROGEN    1.0  -0.5028279663  -0.8709235850   0.0000000000
 HYDROGEN    1.0   1.0056559325   0.0000000000   0.0000000000

          INTERNUCLEAR DISTANCES (ANGS.)
          ------------------------------

                1 NITR       2 HYDR       3 HYDR       4 HYDR  

   1 NITR    0.0000000    1.0056559 *  1.0056559 *  1.0056559 *
   2 HYDR    1.0056559 *  0.0000000    1.7418472 *  1.7418472 *
   3 HYDR    1.0056559 *  1.7418472 *  0.0000000    1.7418472 *
   4 HYDR    1.0056559 *  1.7418472 *  1.7418472 *  0.0000000  

  * ... LESS THAN  3.000

 ...... END OF ONE-ELECTRON INTEGRALS ......
 CPU     0: STEP CPU TIME=     0.00 TOTAL CPU TIME=          0.0 (      0.0 MIN)
 TOTAL WALL CLOCK TIME=          0.0 SECONDS, CPU UTILIZATION IS    99.47%
 TOTAL NUMBER OF NONZERO TWO-ELECTRON INTEGRALS =                 125
          1 INTEGRAL RECORDS WERE STORED ON DISK FILE  8.
  ...... END OF TWO-ELECTRON INTEGRALS .....
 CPU     0: STEP CPU TIME=     0.00 TOTAL CPU TIME=          0.0 (      0.0 MIN)
 TOTAL WALL CLOCK TIME=          0.0 SECONDS, CPU UTILIZATION IS    99.47%

          --------------------------
                 RHF SCF CALCULATION
          --------------------------
     DENSITY MATRIX CONV=  1.00E-05

 ITER EX DEM     TOTAL ENERGY        E CHANGE  DENSITY CHANGE    DIIS ERROR
   1  0  0      -55.4376607637   -55.4376607637   0.002246058   0.000000000
   2  1  0      -55.4376650757    -0.0000043120   0.000732105   0.000000000
   3  2  0      -55.4376652045    -0.0000001289   0.000114460   0.000000000
   4  3  0      -55.4376652120    -0.0000000075   0.000039975   0.000000000
   5  4  0      -55.4376652125    -0.0000000005   0.000009820   0.000000000
   6  5  0      -55.4376652125    -0.0000000000   0.000002756   0.000000000

          -----------------
          DENSITY CONVERGED
          -----------------
     TIME TO FORM FOCK OPERATORS=       0.0 SECONDS (       0.0 SEC/ITER)
     TIME TO SOLVE SCF EQUATIONS=       0.0 SECONDS (       0.0 SEC/ITER)

 FINAL RHF ENERGY IS      -55.4376652125 AFTER   6 ITERATIONS
 ...... END OF RHF CALCULATION ......
 CPU     0: STEP CPU TIME=     0.00 TOTAL CPU TIME=          0.0 (      0.0 MIN)
 TOTAL WALL CLOCK TIME=          0.0 SECONDS, CPU UTILIZATION IS    99.49%
 ..... END OF 1-ELECTRON GRADIENT ......
 CPU     0: STEP CPU TIME=     0.00 TOTAL CPU TIME=          0.0 (      0.0 MIN)
 TOTAL WALL CLOCK TIME=          0.0 SECONDS, CPU UTILIZATION IS    99.49%
 ...... END OF 2-ELECTRON GRADIENT ......
 CPU     0: STEP CPU TIME=     0.00 TOTAL CPU TIME=          0.0 (      0.0 MIN)
 TOTAL WALL CLOCK TIME=          0.0 SECONDS, CPU UTILIZATION IS    99.50%

          NSERCH=  2     ENERGY=     -55.4376652

                                 -----------------------
                                 GRADIENT (HARTREE/BOHR)
                                 -----------------------
        ATOM     ZNUC       DE/DX         DE/DY         DE/DZ
 --------------------------------------------------------------
    1  NITROGEN     7.0     0.0000000     0.0000000     0.0000000
    2  HYDROGEN     1.0    -0.0001029     0.0001783     0.0000000
    3  HYDROGEN     1.0    -0.0001029    -0.0001783     0.0000000
    4  HYDROGEN     1.0     0.0002059     0.0000000     0.0000000

          MAXIMUM GRADIENT = 0.0002059    RMS GRADIENT = 0.0001029

 NSERCH:   2  E=      -55.4376652125  GRAD. MAX=  0.0002059  R.M.S.=  0.0001029

          HESSIAN UPDATED USING THE BFGS FORMULA
             ACTUAL ENERGY CHANGE WAS  -0.0000605916
          PREDICTED ENERGY CHANGE WAS  -0.0000634595 RATIO=  0.955
          MIN SEARCH, CORRECT HESSIAN, TRYING PURE NR STEP
               NR STEP HAS LENGTH         =   0.000571
          RADIUS OF STEP TAKEN=   0.00057  CURRENT TRUST RADIUS=   0.05000

 BEGINNING GEOMETRY SEARCH POINT NSERCH=   3 ...

 COORDINATES OF SYMMETRY UNIQUE ATOMS (ANGS)
   ATOM   CHARGE       X              Y              Z
 ------------------------------------------------------------
 NITROGEN    7.0  -0.0000000000  -0.0000000000   0.0000000000
 HYDROGEN    1.0   1.0054815098   0.0000000000   0.0000000000
 COORDINATES OF ALL ATOMS ARE (ANGS)
   ATOM   CHARGE       X              Y              Z
 ------------------------------------------------------------
 NITROGEN    7.0  -0.0000000000  -0.0000000000   0.0000000000
 HYDROGEN    1.0  -0.5027407549   0.8707725305   0.0000000000
 HYDROGEN    1.0  -0.5027407549  -0.8707725305   0.0000000000
 HYDROGEN    1.0   1.0054815098   0.0000000000   0.0000000000

          INTERNUCLEAR DISTANCES (ANGS.)
          ------------------------------

                1 NITR       2 HYDR       3 HYDR       4 HYDR  

   1 NITR    0.0000000    1.0054815 *  1.0054815 *  1.0054815 *
   2 HYDR    1.0054815 *  0.0000000    1.7415451 *  1.7415451 *
   3 HYDR    1.0054815 *  1.7415451 *  0.0000000    1.7415451 *
   4 HYDR    1.0054815 *  1.7415451 *  1.7415451 *  0.0000000  

  * ... LESS THAN  3.000

 ...... END OF ONE-ELECTRON INTEGRALS ......
 CPU     0: STEP CPU TIME=     0.00 TOTAL CPU TIME=          0.0 (      0.0 MIN)
 TOTAL WALL CLOCK TIME=          0.0 SECONDS, CPU UTILIZATION IS    99.50%
 TOTAL NUMBER OF NONZERO TWO-ELECTRON INTEGRALS =                 125
          1 INTEGRAL RECORDS WERE STORED ON DISK FILE  8.
  ...... END OF TWO-ELECTRON INTEGRALS .....
 CPU     0: STEP CPU TIME=     0.00 TOTAL CPU TIME=          0.0 (      0.0 MIN)
 TOTAL WALL CLOCK TIME=          0.0 SECONDS, CPU UTILIZATION IS    99.51%

          --------------------------
                 RHF SCF CALCULATION
          --------------------------
     DENSITY MATRIX CONV=  1.00E-05

 ITER EX DEM     TOTAL ENERGY        E CHANGE  DENSITY CHANGE    DIIS ERROR
   1  0  0      -55.4376653088   -55.4376653088   0.000087318   0.000000000
   2  1  0      -55.4376653153    -0.0000000065   0.000028448   0.000000000
   3  2  0      -55.4376653155    -0.0000000002   0.000004445   0.000000000
   4  3  0      -55.4376653155    -0.0000000000   0.000001552   0.000000000

          -----------------
          DENSITY CONVERGED
          -----------------
     TIME TO FORM FOCK OPERATORS=       0.0 SECONDS (       0.0 SEC/ITER)
     TIME TO SOLVE SCF EQUATIONS=       0.0 SECONDS (       0.0 SEC/ITER)

 FINAL RHF ENERGY IS      -55.4376653155 AFTER   4 ITERATIONS
 ...... END OF RHF CALCULATION ......
 CPU     0: STEP CPU TIME=     0.00 TOTAL CPU TIME=          0.0 (      0.0 MIN)
 TOTAL WALL CLOCK TIME=          0.0 SECONDS, CPU UTILIZATION IS    99.52%
 ..... END OF 1-ELECTRON GRADIENT ......
 CPU     0: STEP CPU TIME=     0.00 TOTAL CPU TIME=          0.0 (      0.0 MIN)
 TOTAL WALL CLOCK TIME=          0.0 SECONDS, CPU UTILIZATION IS    99.51%
 ...... END OF 2-ELECTRON GRADIENT ......
 CPU     0: STEP CPU TIME=     0.00 TOTAL CPU TIME=          0.0 (      0.0 MIN)
 TOTAL WALL CLOCK TIME=          0.0 SECONDS, CPU UTILIZATION IS    99.51%

          NSERCH=  3     ENERGY=     -55.4376653

                                 -----------------------
                                 GRADIENT (HARTREE/BOHR)
                                 -----------------------
        ATOM     ZNUC       DE/DX         DE/DY         DE/DZ
 --------------------------------------------------------------
    1  NITROGEN     7.0     0.0000000     0.0000000     0.0000000
    2  HYDROGEN     1.0    -0.0000012     0.0000021     0.0000000
    3  HYDROGEN     1.0    -0.0000012    -0.0000021     0.0000000
    4  HYDROGEN     1.0     0.0000024     0.0000000     0.0000000

          MAXIMUM GRADIENT = 0.0000024    RMS GRADIENT = 0.0000012

 NSERCH:   3  E=      -55.4376653155  GRAD. MAX=  0.0000024  R.M.S.=  0.0000012


      ***** EQUILIBRIUM GEOMETRY LOCATED *****
 COORDINATES OF SYMMETRY UNIQUE ATOMS (ANGS)
   ATOM   CHARGE       X              Y              Z
 ------------------------------------------------------------
 NITROGEN    7.0  -0.0000000000  -0.0000000000   0.0000000000
 HYDROGEN    1.0   1.0054815098   0.0000000000   0.0000000000
 COORDINATES OF ALL ATOMS ARE (ANGS)
   ATOM   CHARGE       X              Y              Z
 ------------------------------------------------------------
 NITROGEN    7.0  -0.0000000000  -0.0000000000   0.0000000000
 HYDROGEN    1.0  -0.5027407549   0.8707725305   0.0000000000
 HYDROGEN    1.0  -0.5027407549  -0.8707725305   0.0000000000
 HYDROGEN    1.0   1.0054815098   0.0000000000   0.0000000000

          INTERNUCLEAR DISTANCES (ANGS.)
          ------------------------------

                1 NITR       2 HYDR       3 HYDR       4 HYDR  

   1 NITR    0.0000000    1.0054815 *  1.0054815 *  1.0054815 *
   2 HYDR    1.0054815 *  0.0000000    1.7415451 *  1.7415451 *
   3 HYDR    1.0054815 *  1.7415451 *  0.0000000    1.7415451 *
   4 HYDR    1.0054815 *  1.7415451 *  1.7415451 *  0.0000000  

  * ... LESS THAN  3.000


          NUCLEAR ENERGY    =       11.9637049501
          ELECTRONIC ENERGY =      -67.4013702656
          TOTAL ENERGY      =      -55.4376653155

          ------------------
          MOLECULAR ORBITALS
          ------------------

                      1          2          3          4          5
                  -15.2585    -1.0434    -0.5776    -0.5776    -0.3115
                     A1'        A1'        E'         E'         A2" 
    1  N  1  S   -0.993304  -0.223246   0.000000   0.000000   0.000000
    2  N  1  S   -0.032292   0.740638   0.000000   0.000000   0.000000
    3  N  1  X    0.000000   0.000000   0.585826   0.000000   0.000000
    4  N  1  Y    0.000000   0.000000   0.000000   0.585826   0.000000
    5  N  1  Z    0.000000   0.000000   0.000000   0.000000   1.000000
    6  H  2  S    0.006550   0.169452  -0.240116   0.415893   0.000000
    7  H  3  S    0.006550   0.169452  -0.240116  -0.415893   0.000000
    8  H  4  S    0.006550   0.169452   0.480232   0.000000   0.000000

                      6          7          8
                    0.5965     0.7996     0.7996
                     A1'        E'         E'  
    1  N  1  S    0.201856   0.000000   0.000000
    2  N  1  S   -1.350270   0.000000   0.000000
    3  N  1  X    0.000000   1.101009   0.000000
    4  N  1  Y    0.000000   0.000000   1.101009
    5  N  1  Z    0.000000   0.000000   0.000000
    6  H  2  S    0.724802   0.508252  -0.880319
    7  H  3  S    0.724802   0.508252   0.880319
    8  H  4  S    0.724802  -1.016505   0.000000

     ----------------------------------------------------------------
     PROPERTY VALUES FOR THE RHF   SELF-CONSISTENT FIELD WAVEFUNCTION
     ----------------------------------------------------------------

          -----------------
          ENERGY COMPONENTS
          -----------------

         WAVEFUNCTION NORMALIZATION =       1.0000000000

                ONE ELECTRON ENERGY =     -99.2655867916
                TWO ELECTRON ENERGY =      31.8642165260
           NUCLEAR REPULSION ENERGY =      11.9637049501
                                      ------------------
                       TOTAL ENERGY =     -55.4376653155

 ELECTRON-ELECTRON POTENTIAL ENERGY =      31.8642165260
  NUCLEUS-ELECTRON POTENTIAL ENERGY =    -154.3476067616
   NUCLEUS-NUCLEUS POTENTIAL ENERGY =      11.9637049501
                                      ------------------
             TOTAL POTENTIAL ENERGY =    -110.5196852856
               TOTAL KINETIC ENERGY =      55.0820199701
                 VIRIAL RATIO (V/T) =       2.0064566504

  ...... PI ENERGY ANALYSIS ......

 ENERGY ANALYSIS:
            FOCK ENERGY=    -35.5371534341
          BARE H ENERGY=    -99.2655867916
     ELECTRONIC ENERGY =    -67.4013701129
         KINETIC ENERGY=     55.0820199701
          N-N REPULSION=     11.9637049501
           TOTAL ENERGY=    -55.4376651628
        SIGMA PART(1+2)=    -60.7690796471
               (K,V1,2)=     51.2833037283   -137.9073623066     25.8549789312
           PI PART(1+2)=     -6.6322904658
               (K,V1,2)=      3.7987162417    -16.4402444550      6.0092377475
  SIGMA SKELETON, ERROR=    -48.8053746970      0.0000000000
             MIXED PART= 0.00000E+00 0.00000E+00 0.00000E+00 0.00000E+00
 ...... END OF PI ENERGY ANALYSIS ......

          ---------------------------------------
          MULLIKEN AND LOWDIN POPULATION ANALYSES
          ---------------------------------------

     ATOMIC MULLIKEN POPULATION IN EACH MOLECULAR ORBITAL

                      1          2          3          4          5

                  2.000000   2.000000   2.000000   2.000000   2.000000

    1             2.002599   1.403580   1.059378   1.059378   2.000000
    2            -0.000866   0.198807   0.156770   0.470311   0.000000
    3            -0.000866   0.198807   0.156770   0.470311   0.000000
    4            -0.000866   0.198807   0.627081   0.000000   0.000000

               ----- POPULATIONS IN EACH AO -----
                             MULLIKEN      LOWDIN
              1  N  1  S      1.99456     1.99011
              2  N  1  S      1.41162     1.20171
              3  N  1  X      1.05938     1.08033
              4  N  1  Y      1.05938     1.08033
              5  N  1  Z      2.00000     2.00000
              6  H  2  S      0.82502     0.88250
              7  H  3  S      0.82502     0.88250
              8  H  4  S      0.82502     0.88250

          ----- MULLIKEN ATOMIC OVERLAP POPULATIONS -----
          (OFF-DIAGONAL ELEMENTS NEED TO BE MULTIPLIED BY 2)

             1           2           3           4

    1    6.4196344
    2    0.3684335   0.5187597
    3    0.3684335  -0.0310857   0.5187597
    4    0.3684335  -0.0310857  -0.0310857   0.5187597

          TOTAL MULLIKEN AND LOWDIN ATOMIC POPULATIONS
       ATOM         MULL.POP.    CHARGE          LOW.POP.     CHARGE
    1 NITROGEN      7.524935   -0.524935         7.352490   -0.352490
    2 HYDROGEN      0.825022    0.174978         0.882503    0.117497
    3 HYDROGEN      0.825022    0.174978         0.882503    0.117497
    4 HYDROGEN      0.825022    0.174978         0.882503    0.117497

          -------------------------------
          BOND ORDER AND VALENCE ANALYSIS     BOND ORDER THRESHOLD=0.050
          -------------------------------

                   BOND                       BOND                       BOND
  ATOM PAIR DIST  ORDER      ATOM PAIR DIST  ORDER      ATOM PAIR DIST  ORDER
    1   2  1.005  0.943        1   3  1.005  0.943        1   4  1.005  0.943

                       TOTAL       BONDED        FREE
      ATOM            VALENCE     VALENCE     VALENCE
    1 NITROGEN          2.828       2.828      -0.000
    2 HYDROGEN          0.969       0.969      -0.000
    3 HYDROGEN          0.969       0.969      -0.000
    4 HYDROGEN          0.969       0.969      -0.000

          ---------------------
          ELECTROSTATIC MOMENTS
          ---------------------

 POINT   1           X           Y           Z (BOHR)    CHARGE
                -0.000000    0.000000    0.000000       -0.00 (A.U.)
         DX          DY          DZ         /D/  (DEBYE)
    -0.000000    0.000000   -0.000000    0.000000
 ...... END OF PROPERTY EVALUATION ......
 CPU     0: STEP CPU TIME=     0.00 TOTAL CPU TIME=          0.0 (      0.0 MIN)
 TOTAL WALL CLOCK TIME=          0.0 SECONDS, CPU UTILIZATION IS    99.45%
  $VIB   
          IVIB=   0 IATOM=   0 ICOORD=   0 E=      -55.4376653155
  0.000000000E+00 0.000000000E+00 0.000000000E+00-1.190703304E-06 2.062358620E-06
  0.000000000E+00-1.190703304E-06-2.062358620E-06 0.000000000E+00 2.381406609E-06
  0.000000000E+00 0.000000000E+00
 -5.079468846E-15 1.175265182E-14-4.252612983E-32
 ......END OF GEOMETRY SEARCH......
 CPU     0: STEP CPU TIME=     0.00 TOTAL CPU TIME=          0.0 (      0.0 MIN)
 TOTAL WALL CLOCK TIME=          0.0 SECONDS, CPU UTILIZATION IS    99.46%
               580000  WORDS OF DYNAMIC MEMORY USED
 EXECUTION OF GAMESS TERMINATED NORMALLY 12:55:58 21-JUN-2021    
 DDI: 263640 bytes (0.3 MB / 0 MWords) used by master data server.

 ----------------------------------------
 CPU timing information for all processes
 ========================================
 0: 0.20 + 0.09 = 0.29
 ----------------------------------------
 ddikick.x: exited gracefully.
unset echo
----- accounting info -----
Files used on the master node jackson-Z97X-UD3H-BK were:
-rw-rw-r-- 1 jackson jackson     328 Jun 21 12:55 /home/jackson/Source/GamessRuns/4a.F05
-rw-rw-r-- 1 jackson jackson  180016 Jun 21 12:55 /home/jackson/Source/GamessRuns/4a.F08
-rw-rw-r-- 1 jackson jackson 1668720 Jun 21 12:55 /home/jackson/Source/GamessRuns/4a.F10
ls: No match.
ls: No match.
ls: No match.
Mon 21 Jun 2021 12:56:01 PM CDT
0.1u 0.0s 0:03.28 7.0% 0+0k 0+16io 0pf+0w
