----- GAMESS execution script 'rungms' -----
This job is running on host jackson-Z97X-UD3H-BK
under operating system Linux at Mon 21 Jun 2021 01:32:11 PM CDT
Available scratch disk space (Kbyte units) at beginning of the job is
Filesystem     1K-blocks     Used Available Use% Mounted on
/dev/sda2      114337956 62831304  45655516  58% /
GAMESS temporary binary files will be written to /home/jackson/Source/GamessRuns
GAMESS supplementary output files will be written to /home/jackson/Source/gamess/GamessRunsOutput
Copying input file ./4c.inp to your run's scratch directory...
cp ./4c.inp /home/jackson/Source/GamessRuns/4c.F05
unset echo
/home/jackson/Source/gamess/ddikick.x /home/jackson/Source/gamess/gamess.01.x 4c -ddi 1 1 jackson-Z97X-UD3H-BK -scr /home/jackson/Source/GamessRuns

 Distributed Data Interface kickoff program.
 Initiating 1 compute processes on 1 nodes to run the following command:
 /home/jackson/Source/gamess/gamess.01.x 4c 

          *******************************************************
          *                                                     *
          *          GAMESS VERSION = 30 SEP 2020 (R2)          *
          *                                                     *
          *              doi.org/10.1063/5.0005188              *
          *                                                     *
          **************** 64 BIT LINUX VERSION *****************

  GAMESS HAS BEEN MADE POSSIBLE WITH IMPORTANT CONTRIBUTIONS FROM
  THE FOLLOWING INDIVIDUALS (IN ALPHABETICAL ORDER):

     IVANA ADAMOVIC, CHRISTINE AIKENS, TOMOKO AKAMA,
     YURI ALEXEEV, YURIKO AOKI, POOJA ARORA, TOSHIO ASADA,
     ANDREY ASADCHEV, KIM K. BALDRIDGE, PRADIPTA BANDYOPADHYAY,
     MARIA BARYSZ, ROB BELL, JONATHAN BENTZ, COLLEEN BERTONI,
     JERRY A. BOATZ, BRETT BODE, KURT BRORSEN, KURT R. BRORSEN,
     LAIMUTIS BYTAUTAS, CALEB CARLIN, LAURA CARRINGTON,
     GALINA CHABAN, BENOIT CHAMPAGNE, WEI CHEN, MAHITO CHIBA,
     DAN CHIPMAN, CHEOL HO CHOI, TANNER CULPITT,
     DIPAYAN DATTA, PAUL DAY, ALBERT DEFUSCO,
     NUWAN DESILVA, J. EMILIANO DEUSTUA,
     TIM DUDLEY, MICHEL DUPUIS, STEVEN T. ELBERT,
     DMITRI FEDOROV, ALEX FINDLATER, GRAHAM FLETCHER,
     MARK FREITAG, CHRISTIAN FRIEDL, DAVID GARMER,
     IGOR S. GERASIMOV, KURT GLAESEMANN, MARK S. GORDON,
     JEFFREY GOUR, FENG LONG GU, EMILIE B. GUIDEZ,
     ANASTASIA GUNINA, SHARON HAMMES-SCHIFFER, MASATAKE HARUTA,
     KIMIHIKO HIRAO, YASUHIRO IKABATA, TZVETELIN IORDANOV,
     STEPHAN IRLE, KAZUYA ISHIMURA, JOE IVANIC, FRANK JENSEN,
     JAN H. JENSEN, VISVALDAS KAIRYS, MUNEAKI KAMIYA,
     MICHIO KATOUDA, NAOAKI KAWAKAMI, DAN KEMP, BERNARD KIRTMAN,
     KAZUO KITAURA, MARIUSZ KLOBUKOWSKI, MASATO KOBAYASHI,
     PRAKASHAN KORAMBATH, JACEK KORCHOWIEC, SHIRO KOSEKI,
     KAROL KOWALSKI, JIMMY KROMANN, STANISLAW KUCHARSKI,
     HENRY KURTZ, SAROM SOK LEANG, HUI LI, SHUHUA LI, WEI LI,
     JESSE LUTZ, ALEKSANDR O. LYKHIN, MARCIN MAKOWSKI,
     JOANI MATO, NIKITA MATSUNAGA, BENEDETTA MENNUCCI,
     GRANT MERRILL, NORIYUKI MINEZAWA, VLADIMIR MIRONOV,
     EISAKU MIYOSHI, JOHN A. MONTGOMERY JR., HIROTOSHI MORI,
     JONATHAN MULLIN, MONIKA MUSIAL, SHIGERU NAGASE,
     TAKESHI NAGATA, HIROMI NAKAI, TAKAHITO NAKAJIMA,
     YUYA NAKAJIMA, HARUYUKI NAKANO, HIROYA NAKATA, SEAN NEDD,
     HEATHER NETZLOFF, KIET A. NGUYEN, YOSHIO NISHIMOTO,
     BOSILJKA NJEGIC, RYAN OLSON, MIKE PAK, ROBERTO PEVERATI,
     BUU PHAM, PIOTR PIECUCH, ANNA POMOGAEVA, DAVID POOLE,
     SPENCER PRUITT, OLIVIER QUINET, LUKE ROSKOP,
     KLAUS RUEDENBERG, ANDREW SAND, TOSAPORN SATTASATHUCHANA,
     NOZOMI SAWADA, MICHAEL W. SCHMIDT, PATRICK E. SCHNEIDER,
     JUNJI SEINO, PRACHI SHARMA, JUN SHEN, JIM SHOEMAKER,
     YINAN SHU, DEJUN SI, JONATHAN SKONE, LYUDMILA SLIPCHENKO,
     TONY SMITH, JIE SONG, MARK SPACKMAN, CASPER STEINMANN,
     WALT STEVENS, PEIFENG SU, SHUJUN SU, CHET SWALINA,
     TETSUYA TAKETSUGU, ZHEN TAO, NANDUN THELLAMUREGE
     SEIKEN TOKURA, JACOPO TOMASI, TSUGUKI TOUMA, TAKAO TSUNEDA,
     HIROAKI UMEDA, JORGE LUIS GALVEZ VALLEJO, YALI WANG,
     SIMON WEBB, AARON WEST, THERESA L. WINDUS, MARTA WLOCH,
     PENG XU, KIYOSHI YAGI, SUSUMU YANAGISAWA, YANG YANG,
     SOOHAENG YOO, TAKESHI YOSHIKAWA, FEDERICO ZAHARIEV,
     TOBY ZENG

  WHO ARE SUPPORTED BY THEIR INSTITUTION/UNIVERSITY/COMPANY/GROUP
  (IN ALPHABETICAL ORDER):

     EP ANALYTICS, FACULTES UNIVERSITAIRES NOTRE-DAME DE LA PAIX,
     INSTITUTE FOR MOLECULAR SCIENCE, IOWA STATE UNIVERSITY,
     JACKSON STATE UNIVERSITY, JOHANNES KEPLER UNIVERSITY LINZ,
     KYUSHU UNIVERSITY, MICHIGAN STATE UNIVERSITY,
     MIE UNIVERSITY, MOSCOW STATE UNIVERSITY,
     N. COPERNICUS UNIVERSITY, NAGOYA UNIVERSITY,
     NANJING UNIVERSITY, NAT. INST. OF ADVANCED INDUSTRIAL
     SCIENCE AND TECHNOLOGY, NATIONAL INST. OF STANDARDS AND
     TECHNOLOGY, NESMEYANOV INSTITUTE OF ORGANOELEMENT COMPOUNDS
     OF RUSSIAN ACADEMY OF SCIENCES, OSAKA PREFECTURE UNIVERSITY,
     PENNSYLVANIA STATE UNIVERSITY, TOKYO INSTITUTE OF TECHNOLOGY,
     UNIVERSITY OF AARHUS, UNIVERSITY OF ALBERTA,
     UNIVERSITY OF CALIFORNIA AT SANTA BARBARA,
     UNIVERSITY OF COPENHAGEN, UNIVERSITY OF IOWA,
     UNIVERSITY OF MEMPHIS, UNIVERSITY OF MINNESOTA,
     UNIVERSITY OF NEBRASKA, UNIVERSITY OF NEW ENGLAND,
     UNIVERSITY OF NOTRE DAME, UNIVERSITY OF PISA,
     UNIVERSITY OF SILESIA, UNIVERSITY OF TOKYO,
     UNIVERSITY OF ZURICH, WASEDA UNIVERSITY, YALE UNIVERSITY

  GAMESS SOFTWARE MANAGEMENT TEAM FOR THIS RELEASE:
     MARK S. GORDON (TEAM LEAD),
     BRETT BODE (SENIOR ADVISOR),
     GIUSEPPE BARCA,
     COLLEEN BERTONI,
     KRISTOPHER KEIPERT (ADVISOR),
     SAROM S. LEANG (DEVELOPMENT LEAD),
     BUU PHAM,
     JORGE LUIS GALVEZ VALLEJO (WEBSITE ADMINISTRATOR),
     PENG XU

 EXECUTION OF GAMESS BEGUN 13:32:11 21-JUN-2021    

            ECHO OF THE FIRST FEW INPUT CARDS -
 INPUT CARD>! Assignment 1 from Dr Gordon                                                   
 INPUT CARD>! Optimize NH3 geometry with HF, and 6-31G(d) basis set                         
 INPUT CARD>! use D3h symmetry                                                              
 INPUT CARD>!                                                                               
 INPUT CARD> $CONTRL SCFTYP=RHF RUNTYP=OPTIMIZE $END                                        
 INPUT CARD> $SYSTEM TIMLIM=1 MEMDDI=1 PARALL=.TRUE. $END                                   
 INPUT CARD> $BASIS  GBASIS=N31 NGAUSS=6 NDFUNC=1 $END                                      
 INPUT CARD> $DATA                                                                          
 INPUT CARD>6-31G(d) - NH3 - D3h                                                            
 INPUT CARD>Dnh      3                                                                      
 INPUT CARD>                                                                                
 INPUT CARD>NITROGEN   7.0                                                                  
 INPUT CARD>HYDROGEN   1.0   1.02000  0.00000    0.00000                                    
 INPUT CARD> $END                                                                           
    1000000 WORDS OF MEMORY AVAILABLE

     BASIS OPTIONS
     -------------
     GBASIS=N31          IGAUSS=       6      POLAR=POPN31  
     NDFUNC=       1     NFFUNC=       0     DIFFSP=       F
     NPFUNC=       0      DIFFS=       F     BASNAM=        


     RUN TITLE
     ---------
 6-31G(d) - NH3 - D3h                                                            

 THE POINT GROUP OF THE MOLECULE IS DNH     
 THE ORDER OF THE PRINCIPAL AXIS IS     3

 ATOM      ATOMIC                      COORDINATES (BOHR)
           CHARGE         X                   Y                   Z
 NITROGEN    7.0     0.0000000000        0.0000000000        0.0000000000
 HYDROGEN    1.0    -0.9637602537        1.6692817258        0.0000000000
 HYDROGEN    1.0    -0.9637602537       -1.6692817258        0.0000000000
 HYDROGEN    1.0     1.9275205075        0.0000000000        0.0000000000

          INTERNUCLEAR DISTANCES (ANGS.)
          ------------------------------

                1 NITR       2 HYDR       3 HYDR       4 HYDR  

   1 NITR    0.0000000    1.0200000 *  1.0200000 *  1.0200000 *
   2 HYDR    1.0200000 *  0.0000000    1.7666918 *  1.7666918 *
   3 HYDR    1.0200000 *  1.7666918 *  0.0000000    1.7666918 *
   4 HYDR    1.0200000 *  1.7666918 *  1.7666918 *  0.0000000  

  * ... LESS THAN  3.000


     ATOMIC BASIS SET
     ----------------
 THE CONTRACTED PRIMITIVE FUNCTIONS HAVE BEEN UNNORMALIZED
 THE CONTRACTED BASIS FUNCTIONS ARE NOW NORMALIZED TO UNITY

  SHELL TYPE  PRIMITIVE        EXPONENT          CONTRACTION COEFFICIENT(S)

 NITROGEN  

      1   S       1          4173.5114600    0.001834772160
      1   S       2           627.4579110    0.013994627002
      1   S       3           142.9020930    0.068586551812
      1   S       4            40.2343293    0.232240873040
      1   S       5            12.8202129    0.469069948082
      1   S       6             4.3904370    0.360455199063

      2   L       7            11.6263619   -0.114961181702    0.067579743878
      2   L       8             2.7162798   -0.169117478561    0.323907295893
      2   L       9             0.7722184    1.145851947027    0.740895139755

      3   L      10             0.2120315    1.000000000000    1.000000000000

      4   D      11             0.8000000    1.000000000000

 HYDROGEN  

      9   S      12            18.7311370    0.033494604338
      9   S      13             2.8253944    0.234726953484
      9   S      14             0.6401217    0.813757326146

     10   S      15             0.1612778    1.000000000000

 TOTAL NUMBER OF BASIS SET SHELLS             =   10
 NUMBER OF CARTESIAN GAUSSIAN BASIS FUNCTIONS =   21
 NUMBER OF ELECTRONS                          =   10
 CHARGE OF MOLECULE                           =    0
 SPIN MULTIPLICITY                            =    1
 NUMBER OF OCCUPIED ORBITALS (ALPHA)          =    5
 NUMBER OF OCCUPIED ORBITALS (BETA )          =    5
 TOTAL NUMBER OF ATOMS                        =    4
 THE NUCLEAR REPULSION ENERGY IS       11.7934157999

     $CONTRL OPTIONS
     ---------------
 SCFTYP=RHF          RUNTYP=OPTIMIZE     EXETYP=RUN     
 MPLEVL=       0     CITYP =NONE         CCTYP =NONE         VBTYP =NONE    
 DFTTYP=NONE         TDDFT =NONE    
 MULT  =       1     ICHARG=       0     NZVAR =       0     COORD =UNIQUE  
 PP    =NONE         RELWFN=NONE         LOCAL =NONE         NUMGRD=       F
 ISPHER=      -1     NOSYM =       0     MAXIT =      30     UNITS =ANGS    
 PLTORB=       F     MOLPLT=       F     AIMPAC=       F     FRIEND=        
 NPRINT=       7     IREST =       0     GEOM  =INPUT   
 NORMF =       0     NORMP =       0     ITOL  =      20     ICUT  =       9
 INTTYP=BEST         GRDTYP=BEST         QMTTOL= 1.0E-06

     $SYSTEM OPTIONS
     ---------------
  REPLICATED MEMORY=     1000000 WORDS (ON EVERY NODE).
 DISTRIBUTED MEMDDI=           1 MILLION WORDS IN AGGREGATE,
 MEMDDI DISTRIBUTED OVER   1 PROCESSORS IS     1000000 WORDS/PROCESSOR.
 TOTAL MEMORY REQUESTED ON EACH PROCESSOR=     2000000 WORDS.
 TIMLIM=           1.00 MINUTES, OR       0.0 DAYS.
 PARALL= T  BALTYP=  DLB     KDIAG=    0  COREFL= F
 MXSEQ2=     300 MXSEQ3=     150  mem10=         0  mem22=         0

 Using Gaussians for PCM contribution to MEP, params: 0.10000E+01 0.10000E-07

          ----------------
          PROPERTIES INPUT
          ----------------

     MOMENTS            FIELD           POTENTIAL          DENSITY
 IEMOM =       1   IEFLD =       0   IEPOT =       0   IEDEN =       0
 WHERE =COMASS     WHERE =NUCLEI     WHERE =NUCLEI     WHERE =NUCLEI  
 OUTPUT=BOTH       OUTPUT=BOTH       OUTPUT=BOTH       OUTPUT=BOTH    
 IEMINT=       0   IEFINT=       0                     IEDINT=       0
                                                       MORB  =       0
          EXTRAPOLATION IN EFFECT
          DIIS IN EFFECT
 ORBITAL PRINTING OPTION: NPREO=     1    21     2     1

     -------------------------------
     INTEGRAL TRANSFORMATION OPTIONS
     -------------------------------
     NWORD  =            0
     CUTOFF = 1.0E-09     MPTRAN =       0
     DIRTRF =       F     AOINTS =DUP     

          ----------------------
          INTEGRAL INPUT OPTIONS
          ----------------------
 NOPK  =       1 NORDER=       0 SCHWRZ=       F

     ------------------------------------------
     THE POINT GROUP IS DNH, NAXIS= 3, ORDER=12
     ------------------------------------------

     DIMENSIONS OF THE SYMMETRY SUBSPACES ARE
 A1' =    7     A1" =    0     A2' =    0     A2" =    2     E'' =    1
 E'  =    5

 ..... DONE SETTING UP THE RUN .....
 CPU     0: STEP CPU TIME=     0.01 TOTAL CPU TIME=          0.0 (      0.0 MIN)
 TOTAL WALL CLOCK TIME=          0.0 SECONDS, CPU UTILIZATION IS    99.24%


          -----------------------------
          STATIONARY POINT LOCATION RUN
          -----------------------------

 OBTAINING INITIAL HESSIAN, HESS=GUESS   
 CARTESIAN COORDINATE OPTIMIZATION USING BADGER'S RULE FORCE CONSTANT GUESS

          PARAMETERS CONTROLLING GEOMETRY SEARCH ARE
          METHOD =QA                  UPHESS =BFGS    
          NNEG   =         0          NFRZ   =         0
          NSTEP  =        50          IFOLOW =         1
          HESS   =GUESS               RESTAR =         F
          IHREP  =         0          HSSEND =         F
          NPRT   =         0          NPUN   =         0
          OPTTOL = 1.000E-04          RMIN   = 1.500E-03
          RMAX   = 1.000E-01          RLIM   = 7.000E-02
          DXMAX  = 3.000E-01          PURIFY =         F
          MOVIE  =         F          TRUPD  =         T
          TRMAX  = 5.000E-01          TRMIN  = 5.000E-02
          ITBMAT =         5          STPT   =         F
          STSTEP = 1.000E-02          PROJCT=          T

 BEGINNING GEOMETRY SEARCH POINT NSERCH=   0 ...

 COORDINATES OF SYMMETRY UNIQUE ATOMS (ANGS)
   ATOM   CHARGE       X              Y              Z
 ------------------------------------------------------------
 NITROGEN    7.0   0.0000000000   0.0000000000   0.0000000000
 HYDROGEN    1.0   1.0200000000   0.0000000000   0.0000000000
 COORDINATES OF ALL ATOMS ARE (ANGS)
   ATOM   CHARGE       X              Y              Z
 ------------------------------------------------------------
 NITROGEN    7.0   0.0000000000   0.0000000000   0.0000000000
 HYDROGEN    1.0  -0.5100000000   0.8833459119   0.0000000000
 HYDROGEN    1.0  -0.5100000000  -0.8833459119   0.0000000000
 HYDROGEN    1.0   1.0200000000   0.0000000000   0.0000000000

          ********************
          1 ELECTRON INTEGRALS
          ********************
 ...... END OF ONE-ELECTRON INTEGRALS ......
 CPU     0: STEP CPU TIME=     0.00 TOTAL CPU TIME=          0.0 (      0.0 MIN)
 TOTAL WALL CLOCK TIME=          0.0 SECONDS, CPU UTILIZATION IS    99.30%

          -------------
          GUESS OPTIONS
          -------------
          GUESS =HUCKEL            NORB  =       0          NORDER=       0
          MIX   =       F          PRTMO =       F          PUNMO =       F
          TOLZ  = 1.0E-08          TOLE  = 1.0E-05
          SYMDEN=       F          PURIFY=       F

 INITIAL GUESS ORBITALS GENERATED BY HUCKEL   ROUTINE.
 HUCKEL GUESS REQUIRES      6369 WORDS.

 SYMMETRIES FOR INITIAL GUESS ORBITALS FOLLOW.   BOTH SET(S).
     5 ORBITALS ARE OCCUPIED (    1 CORE ORBITALS).
     2=A1'      3=E'       4=E'       5=A2"      6=E'       7=E'       8=A1' 
     9=A1'     10=A1'     11=A1'     12=A1'     13=A2"     14=E''     15=E'' 
 ...... END OF INITIAL ORBITAL SELECTION ......
 CPU     0: STEP CPU TIME=     0.00 TOTAL CPU TIME=          0.0 (      0.0 MIN)
 TOTAL WALL CLOCK TIME=          0.0 SECONDS, CPU UTILIZATION IS    99.38%

                    ----------------------
                    AO INTEGRAL TECHNOLOGY
                    ----------------------
     S,P,L SHELL ROTATED AXIS INTEGRALS, REPROGRAMMED BY
        KAZUYA ISHIMURA (IMS) AND JOSE SIERRA (SYNSTAR).
     S,P,D,L SHELL ROTATED AXIS INTEGRALS PROGRAMMED BY
        KAZUYA ISHIMURA (INSTITUTE FOR MOLECULAR SCIENCE).
     S,P,D,F,G SHELL TO TOTAL QUARTET ANGULAR MOMENTUM SUM 5,
        ERIC PROGRAM BY GRAHAM FLETCHER (ELORET AND NASA ADVANCED
        SUPERCOMPUTING DIVISION, AMES RESEARCH CENTER).
     S,P,D,F,G,L SHELL GENERAL RYS QUADRATURE PROGRAMMED BY
        MICHEL DUPUIS (PACIFIC NORTHWEST NATIONAL LABORATORY).

          --------------------
          2 ELECTRON INTEGRALS
          --------------------

 THE -PK- OPTION IS OFF, THE INTEGRALS ARE NOT IN SUPERMATRIX FORM.
 STORING   15000 INTEGRALS/RECORD ON DISK, USING 12 BYTES/INTEGRAL.
 TWO ELECTRON INTEGRAL EVALUATION REQUIRES   90451 WORDS OF MEMORY.
 II,JST,KST,LST =  1  1  1  1 NREC =         1 INTLOC =    1
 II,JST,KST,LST =  2  1  1  1 NREC =         1 INTLOC =    2
 II,JST,KST,LST =  3  1  1  1 NREC =         1 INTLOC =   34
 II,JST,KST,LST =  4  1  1  1 NREC =         1 INTLOC =  214
 II,JST,KST,LST =  5  1  1  1 NREC =         1 INTLOC = 1189
 II,JST,KST,LST =  6  1  1  1 NREC =         1 INTLOC = 1189
 II,JST,KST,LST =  7  1  1  1 NREC =         1 INTLOC = 1189
 II,JST,KST,LST =  8  1  1  1 NREC =         1 INTLOC = 1189
 II,JST,KST,LST =  9  1  1  1 NREC =         1 INTLOC = 1189
 II,JST,KST,LST = 10  1  1  1 NREC =         1 INTLOC = 2070
 TOTAL NUMBER OF NONZERO TWO-ELECTRON INTEGRALS =                3516
          1 INTEGRAL RECORDS WERE STORED ON DISK FILE  8.
  ...... END OF TWO-ELECTRON INTEGRALS .....
 CPU     0: STEP CPU TIME=     0.01 TOTAL CPU TIME=          0.0 (      0.0 MIN)
 TOTAL WALL CLOCK TIME=          0.0 SECONDS, CPU UTILIZATION IS    99.70%

          --------------------------
                 RHF SCF CALCULATION
          --------------------------

     NUCLEAR ENERGY =        11.7934157999
     MAXIT =   30     NPUNCH=    2
     EXTRAP=T  DAMP=F  SHIFT=F  RSTRCT=F  DIIS=T  DEM=F  SOSCF=F
     DENSITY MATRIX CONV=  1.00E-05
     MEMORY REQUIRED FOR RHF ITERS=     34046 WORDS.

 ITER EX DEM     TOTAL ENERGY        E CHANGE  DENSITY CHANGE    DIIS ERROR
   1  0  0      -56.0151730884   -56.0151730884   0.213477622   0.802606621
          * * *   INITIATING DIIS PROCEDURE   * * *
   2  1  0      -56.1603025378    -0.1451294494   0.102861649   0.111523869
   3  2  0      -56.1698753039    -0.0095727661   0.025827768   0.024120056
   4  3  0      -56.1710473675    -0.0011720636   0.015509439   0.017545495
   5  4  0      -56.1711735429    -0.0001261754   0.001878025   0.002129636
   6  5  0      -56.1711790996    -0.0000055567   0.000601085   0.000471886
   7  6  0      -56.1711793530    -0.0000002534   0.000016773   0.000011952
   8  7  0      -56.1711793533    -0.0000000003   0.000001316   0.000000863
   9  8  0      -56.1711793533    -0.0000000000   0.000000037   0.000000048

          -----------------
          DENSITY CONVERGED
          -----------------
     TIME TO FORM FOCK OPERATORS=       0.0 SECONDS (       0.0 SEC/ITER)
     TIME TO SOLVE SCF EQUATIONS=       0.0 SECONDS (       0.0 SEC/ITER)

 FINAL RHF ENERGY IS      -56.1711793533 AFTER   9 ITERATIONS

          ------------
          EIGENVECTORS
          ------------

                      1          2          3          4          5
                  -15.5237    -1.1023    -0.6305    -0.6305    -0.3773
                     A1'        A1'        E'         E'         A2" 
    1  N  1  S    0.994880  -0.200543  -0.000000  -0.000000   0.000000
    2  N  1  S    0.024863   0.415118  -0.000000  -0.000000   0.000000
    3  N  1  X    0.000000   0.000000   0.465325  -0.000000   0.000000
    4  N  1  Y    0.000000   0.000000  -0.000000   0.465325   0.000000
    5  N  1  Z    0.000000   0.000000  -0.000000  -0.000000   0.591679
    6  N  1  S   -0.000622   0.440448  -0.000000  -0.000000   0.000000
    7  N  1  X    0.000000   0.000000   0.285886  -0.000000   0.000000
    8  N  1  Y    0.000000   0.000000  -0.000000   0.285886   0.000000
    9  N  1  Z    0.000000   0.000000  -0.000000  -0.000000   0.555485
   10  N  1 XX   -0.003694   0.022163   0.025396  -0.000000   0.000000
   11  N  1 YY   -0.003694   0.022163  -0.025396  -0.000000   0.000000
   12  N  1 ZZ   -0.003497  -0.012051  -0.000000  -0.000000   0.000000
   13  N  1 XY    0.000000   0.000000  -0.000000  -0.029325   0.000000
   14  N  1 XZ    0.000000   0.000000  -0.000000  -0.000000   0.000000
   15  N  1 YZ    0.000000   0.000000  -0.000000  -0.000000   0.000000
   16  H  2  S    0.000213   0.131492  -0.138912   0.240602   0.000000
   17  H  2  S    0.000301   0.015356  -0.071547   0.123924   0.000000
   18  H  3  S    0.000213   0.131492  -0.138912  -0.240602   0.000000
   19  H  3  S    0.000301   0.015356  -0.071547  -0.123924   0.000000
   20  H  4  S    0.000213   0.131492   0.277824  -0.000000   0.000000
   21  H  4  S    0.000301   0.015356   0.143095  -0.000000   0.000000

                      6          7          8          9         10
                    0.2224     0.3255     0.3255     0.9478     0.9478
                     A1'        E'         E'         E'         E'  
    1  N  1  S   -0.136871   0.000000  -0.000000   0.000000   0.000000
    2  N  1  S    0.140474   0.000000  -0.000000   0.000000   0.000000
    3  N  1  X    0.000000  -0.317607  -0.000000  -0.401241   0.000000
    4  N  1  Y    0.000000   0.000000   0.317607   0.000000  -0.401241
    5  N  1  Z    0.000000   0.000000  -0.000000   0.000000   0.000000
    6  N  1  S    1.954978   0.000000  -0.000000   0.000000   0.000000
    7  N  1  X    0.000000  -1.199308  -0.000000   1.389552   0.000000
    8  N  1  Y    0.000000   0.000000   1.199308   0.000000   1.389552
    9  N  1  Z    0.000000   0.000000  -0.000000   0.000000   0.000000
   10  N  1 XX   -0.034145  -0.000029  -0.000000  -0.167003   0.000000
   11  N  1 YY   -0.034145   0.000029  -0.000000   0.167003   0.000000
   12  N  1 ZZ   -0.045629   0.000000  -0.000000   0.000000   0.000000
   13  N  1 XY    0.000000   0.000000  -0.000033   0.000000   0.192839
   14  N  1 XZ    0.000000   0.000000  -0.000000   0.000000   0.000000
   15  N  1 YZ    0.000000   0.000000  -0.000000   0.000000   0.000000
   16  H  2  S   -0.051628  -0.016835  -0.029159   0.386922  -0.670168
   17  H  2  S   -0.950761  -0.893853  -1.548198   0.066190  -0.114645
   18  H  3  S   -0.051628  -0.016835   0.029159   0.386922   0.670168
   19  H  3  S   -0.950761  -0.893853   1.548198   0.066190   0.114645
   20  H  4  S   -0.051628   0.033670  -0.000000  -0.773844   0.000000
   21  H  4  S   -0.950761   1.787705  -0.000000  -0.132380   0.000000

                     11         12         13         14         15
                    0.9740     1.0331     1.2361     1.2361     1.3113
                     A2"        A1'        E'         E'         A1' 
    1  N  1  S   -0.000000   0.087867   0.000000   0.000000  -0.045262
    2  N  1  S   -0.000000   0.038376   0.000000   0.000000  -1.664115
    3  N  1  X   -0.000000   0.000000  -1.028404   0.000000  -0.000000
    4  N  1  Y   -0.000000   0.000000   0.000000  -1.028404  -0.000000
    5  N  1  Z   -1.009533   0.000000   0.000000   0.000000  -0.000000
    6  N  1  S   -0.000000  -0.671207   0.000000   0.000000   3.942634
    7  N  1  X   -0.000000   0.000000   1.319927   0.000000  -0.000000
    8  N  1  Y   -0.000000   0.000000   0.000000   1.319927  -0.000000
    9  N  1  Z    1.029891   0.000000   0.000000   0.000000  -0.000000
   10  N  1 XX   -0.000000   0.155773   0.132384   0.000000  -0.349499
   11  N  1 YY   -0.000000   0.155773  -0.132384   0.000000  -0.349499
   12  N  1 ZZ   -0.000000  -0.144954   0.000000   0.000000  -0.270524
   13  N  1 XY   -0.000000   0.000000   0.000000  -0.152864  -0.000000
   14  N  1 XZ   -0.000000   0.000000   0.000000   0.000000  -0.000000
   15  N  1 YZ   -0.000000   0.000000   0.000000   0.000000  -0.000000
   16  H  2  S   -0.000000   0.708471  -0.282667   0.489594   0.079622
   17  H  2  S   -0.000000  -0.248125   0.656433  -1.136975  -0.902453
   18  H  3  S   -0.000000   0.708471  -0.282667  -0.489594   0.079622
   19  H  3  S   -0.000000  -0.248125   0.656433   1.136975  -0.902453
   20  H  4  S   -0.000000   0.708471   0.565335   0.000000   0.079622
   21  H  4  S   -0.000000  -0.248125  -1.312866   0.000000  -0.902453

                     16         17         18         19         20
                    2.0009     2.0009     2.4832     2.6676     2.6676
                     E''        E''        A1'        E'         E'  
    1  N  1  S    0.000000  -0.000000  -0.056102  -0.000000   0.000000
    2  N  1  S    0.000000  -0.000000  -0.311135  -0.000000   0.000000
    3  N  1  X    0.000000  -0.000000   0.000000   0.069819   0.000000
    4  N  1  Y    0.000000  -0.000000   0.000000  -0.000000  -0.069819
    5  N  1  Z    0.000000  -0.000000   0.000000  -0.000000   0.000000
    6  N  1  S    0.000000  -0.000000   1.215931  -0.000000   0.000000
    7  N  1  X    0.000000  -0.000000   0.000000   0.825485   0.000000
    8  N  1  Y    0.000000  -0.000000   0.000000  -0.000000  -0.825485
    9  N  1  Z    0.000000  -0.000000   0.000000  -0.000000   0.000000
   10  N  1 XX    0.000000  -0.000000   0.488600   1.012790   0.000000
   11  N  1 YY    0.000000  -0.000000   0.488600  -1.012790   0.000000
   12  N  1 ZZ    0.000000  -0.000000  -1.156840  -0.000000   0.000000
   13  N  1 XY    0.000000  -0.000000   0.000000  -0.000000   1.169469
   14  N  1 XZ    0.000000   1.000000   0.000000  -0.000000   0.000000
   15  N  1 YZ    1.000000  -0.000000   0.000000  -0.000000   0.000000
   16  H  2  S    0.000000  -0.000000  -0.514092   0.464686   0.804860
   17  H  2  S    0.000000  -0.000000  -0.094509   0.041370   0.071655
   18  H  3  S    0.000000  -0.000000  -0.514092   0.464686  -0.804860
   19  H  3  S    0.000000  -0.000000  -0.094509   0.041370  -0.071655
   20  H  4  S    0.000000  -0.000000  -0.514092  -0.929372   0.000000
   21  H  4  S    0.000000  -0.000000  -0.094509  -0.082740   0.000000

                     21
                    4.1066
                     A1' 
    1  N  1  S   -0.459149
    2  N  1  S    1.233189
    3  N  1  X   -0.000000
    4  N  1  Y   -0.000000
    5  N  1  Z   -0.000000
    6  N  1  S    3.006236
    7  N  1  X   -0.000000
    8  N  1  Y   -0.000000
    9  N  1  Z   -0.000000
   10  N  1 XX   -1.516233
   11  N  1 YY   -1.516233
   12  N  1 ZZ   -1.474852
   13  N  1 XY   -0.000000
   14  N  1 XZ   -0.000000
   15  N  1 YZ   -0.000000
   16  H  2  S    0.191504
   17  H  2  S   -0.539138
   18  H  3  S    0.191504
   19  H  3  S   -0.539138
   20  H  4  S    0.191504
   21  H  4  S   -0.539138
 ...... END OF RHF CALCULATION ......
 CPU     0: STEP CPU TIME=     0.00 TOTAL CPU TIME=          0.0 (      0.0 MIN)
 TOTAL WALL CLOCK TIME=          0.0 SECONDS, CPU UTILIZATION IS    99.44%

     ----------------------------------------------------------------
     PROPERTY VALUES FOR THE RHF   SELF-CONSISTENT FIELD WAVEFUNCTION
     ----------------------------------------------------------------

          -----------------
          ENERGY COMPONENTS
          -----------------

         WAVEFUNCTION NORMALIZATION =       1.0000000000

                ONE ELECTRON ENERGY =     -99.4006128160
                TWO ELECTRON ENERGY =      31.4360176627
           NUCLEAR REPULSION ENERGY =      11.7934157999
                                      ------------------
                       TOTAL ENERGY =     -56.1711793533

 ELECTRON-ELECTRON POTENTIAL ENERGY =      31.4360176627
  NUCLEUS-ELECTRON POTENTIAL ENERGY =    -155.3064923981
   NUCLEUS-NUCLEUS POTENTIAL ENERGY =      11.7934157999
                                      ------------------
             TOTAL POTENTIAL ENERGY =    -112.0770589354
               TOTAL KINETIC ENERGY =      55.9058795821
                 VIRIAL RATIO (V/T) =       2.0047454717

  ...... PI ENERGY ANALYSIS ......

 ENERGY ANALYSIS:
            FOCK ENERGY=    -36.5285776724
          BARE H ENERGY=    -99.4006128160
     ELECTRONIC ENERGY =    -67.9645952442
         KINETIC ENERGY=     55.9058795821
          N-N REPULSION=     11.7934157999
           TOTAL ENERGY=    -56.1711794443
        SIGMA PART(1+2)=    -61.7368994974
               (K,V1,2)=     52.8045820672   -140.5044930816     25.9630115170
           PI PART(1+2)=     -6.2276957468
               (K,V1,2)=      3.1012975150    -14.8019993165      5.4730060548
  SIGMA SKELETON, ERROR=    -49.9434836975     -0.0000000000
             MIXED PART= 0.00000E+00 0.00000E+00 0.00000E+00 0.00000E+00
 ...... END OF PI ENERGY ANALYSIS ......

          ---------------------------------------
          MULLIKEN AND LOWDIN POPULATION ANALYSES
          ---------------------------------------

     ATOMIC MULLIKEN POPULATION IN EACH MOLECULAR ORBITAL

                      1          2          3          4          5

                  2.000000   2.000000   2.000000   2.000000   2.000000

    1             1.999799   1.592459   1.245221   1.245221   2.000000
    2             0.000067   0.135847   0.125796   0.377389   0.000000
    3             0.000067   0.135847   0.125796   0.377389   0.000000
    4             0.000067   0.135847   0.503186   0.000000   0.000000

               ----- POPULATIONS IN EACH AO -----
                             MULLIKEN      LOWDIN
              1  N  1  S      1.99508     1.97826
              2  N  1  S      0.72042     0.48274
              3  N  1  X      0.73543     0.67568
              4  N  1  Y      0.73543     0.67610
              5  N  1  Z      1.04152     1.03548
              6  N  1  S      0.82910     0.40114
              7  N  1  X      0.49946     0.55823
              8  N  1  Y      0.49946     0.55952
              9  N  1  Z      0.95848     0.96452
             10  N  1 XX      0.03675     0.19883
             11  N  1 YY      0.03675     0.19883
             12  N  1 ZZ     -0.01549     0.12686
             13  N  1 XY      0.01033     0.01569
             14  N  1 XZ      0.00000     0.00000
             15  N  1 YZ      0.00000     0.00000
             16  H  2  S      0.48447     0.43983
             17  H  2  S      0.15463     0.26885
             18  H  3  S      0.48447     0.43983
             19  H  3  S      0.15463     0.26885
             20  H  4  S      0.48447     0.44178
             21  H  4  S      0.15463     0.26897

          ----- MULLIKEN ATOMIC OVERLAP POPULATIONS -----
          (OFF-DIAGONAL ELEMENTS NEED TO BE MULTIPLIED BY 2)

             1           2           3           4

    1    7.0673315
    2    0.3384560   0.3403753
    3    0.3384560  -0.0198656   0.3403753
    4    0.3384560  -0.0198656  -0.0198656   0.3403753

          TOTAL MULLIKEN AND LOWDIN ATOMIC POPULATIONS
       ATOM         MULL.POP.    CHARGE          LOW.POP.     CHARGE
    1 NITROGEN      8.082700   -1.082700         7.871891   -0.871891
    2 HYDROGEN      0.639100    0.360900         0.708681    0.291319
    3 HYDROGEN      0.639100    0.360900         0.708681    0.291319
    4 HYDROGEN      0.639100    0.360900         0.710748    0.289252

          -------------------------------
          BOND ORDER AND VALENCE ANALYSIS     BOND ORDER THRESHOLD=0.050
          -------------------------------

                   BOND                       BOND                       BOND
  ATOM PAIR DIST  ORDER      ATOM PAIR DIST  ORDER      ATOM PAIR DIST  ORDER
    1   2  1.020  0.843        1   3  1.020  0.843        1   4  1.020  0.843

                       TOTAL       BONDED        FREE
      ATOM            VALENCE     VALENCE     VALENCE
    1 NITROGEN          2.529       2.529      -0.000
    2 HYDROGEN          0.845       0.845      -0.000
    3 HYDROGEN          0.845       0.845      -0.000
    4 HYDROGEN          0.845       0.845      -0.000

          ---------------------
          ELECTROSTATIC MOMENTS
          ---------------------

 POINT   1           X           Y           Z (BOHR)    CHARGE
                -0.000000    0.000000    0.000000       -0.00 (A.U.)
         DX          DY          DZ         /D/  (DEBYE)
    -0.000000    0.000000    0.000000    0.000000
 ...... END OF PROPERTY EVALUATION ......
 CPU     0: STEP CPU TIME=     0.00 TOTAL CPU TIME=          0.0 (      0.0 MIN)
 TOTAL WALL CLOCK TIME=          0.0 SECONDS, CPU UTILIZATION IS    99.50%

 BEGINNING ONE ELECTRON GRADIENT...
 ..... END OF 1-ELECTRON GRADIENT ......
 CPU     0: STEP CPU TIME=     0.00 TOTAL CPU TIME=          0.0 (      0.0 MIN)
 TOTAL WALL CLOCK TIME=          0.0 SECONDS, CPU UTILIZATION IS    99.52%

          ----------------------
          GRADIENT OF THE ENERGY
          ----------------------

 THE MINIMUM MEMORY REQUIRED FOR THIS RUN IS      72392 WORDS.
 USING     999136 WORDS FOR 2E- DERIVATIVE INTEGRAL CONTRIBUTIONS.
 THE COARSE/FINE SCHWARZ SCREENINGS SKIPPED            0/           0 BLOCKS.
 THE NUMBER OF GRADIENT INTEGRAL BLOCKS COMPUTED WAS       360
 ...... END OF 2-ELECTRON GRADIENT ......
 CPU     0: STEP CPU TIME=     0.00 TOTAL CPU TIME=          0.0 (      0.0 MIN)
 TOTAL WALL CLOCK TIME=          0.0 SECONDS, CPU UTILIZATION IS    99.55%

          NSERCH=  0     ENERGY=     -56.1711794

                                 -----------------------
                                 GRADIENT (HARTREE/BOHR)
                                 -----------------------
        ATOM     ZNUC       DE/DX         DE/DY         DE/DZ
 --------------------------------------------------------------
    1  NITROGEN     7.0     0.0000000     0.0000000     0.0000000
    2  HYDROGEN     1.0    -0.0151711     0.0262771     0.0000000
    3  HYDROGEN     1.0    -0.0151711    -0.0262771     0.0000000
    4  HYDROGEN     1.0     0.0303422     0.0000000     0.0000000

          MAXIMUM GRADIENT = 0.0303422    RMS GRADIENT = 0.0151711

 NSERCH:   0  E=      -56.1711793533  GRAD. MAX=  0.0303422  R.M.S.=  0.0151711

          FORCE CONSTANT MATRIX NOT UPDATED --- TAKING FIRST STEP
          MIN SEARCH, CORRECT HESSIAN, TRYING PURE NR STEP
               NR STEP HAS LENGTH         =   0.114699
          RADIUS OF STEP TAKEN=   0.11470  CURRENT TRUST RADIUS=   0.30000

 BEGINNING GEOMETRY SEARCH POINT NSERCH=   1 ...

 COORDINATES OF SYMMETRY UNIQUE ATOMS (ANGS)
   ATOM   CHARGE       X              Y              Z
 ------------------------------------------------------------
 NITROGEN    7.0   0.0000000000   0.0000000000   0.0000000000
 HYDROGEN    1.0   0.9849571773   0.0000000000  -0.0000000000
 COORDINATES OF ALL ATOMS ARE (ANGS)
   ATOM   CHARGE       X              Y              Z
 ------------------------------------------------------------
 NITROGEN    7.0   0.0000000000   0.0000000000   0.0000000000
 HYDROGEN    1.0  -0.4924785887   0.8529979372  -0.0000000000
 HYDROGEN    1.0  -0.4924785887  -0.8529979372  -0.0000000000
 HYDROGEN    1.0   0.9849571773   0.0000000000  -0.0000000000

          INTERNUCLEAR DISTANCES (ANGS.)
          ------------------------------

                1 NITR       2 HYDR       3 HYDR       4 HYDR  

   1 NITR    0.0000000    0.9849572 *  0.9849572 *  0.9849572 *
   2 HYDR    0.9849572 *  0.0000000    1.7059959 *  1.7059959 *
   3 HYDR    0.9849572 *  1.7059959 *  0.0000000    1.7059959 *
   4 HYDR    0.9849572 *  1.7059959 *  1.7059959 *  0.0000000  

  * ... LESS THAN  3.000

 ...... END OF ONE-ELECTRON INTEGRALS ......
 CPU     0: STEP CPU TIME=     0.00 TOTAL CPU TIME=          0.0 (      0.0 MIN)
 TOTAL WALL CLOCK TIME=          0.0 SECONDS, CPU UTILIZATION IS    99.56%
 TOTAL NUMBER OF NONZERO TWO-ELECTRON INTEGRALS =                3516
          1 INTEGRAL RECORDS WERE STORED ON DISK FILE  8.
  ...... END OF TWO-ELECTRON INTEGRALS .....
 CPU     0: STEP CPU TIME=     0.00 TOTAL CPU TIME=          0.0 (      0.0 MIN)
 TOTAL WALL CLOCK TIME=          0.0 SECONDS, CPU UTILIZATION IS    99.58%

          --------------------------
                 RHF SCF CALCULATION
          --------------------------
     DENSITY MATRIX CONV=  5.00E-05

 ITER EX DEM     TOTAL ENERGY        E CHANGE  DENSITY CHANGE    DIIS ERROR
          * * *   INITIATING DIIS PROCEDURE   * * *
   1  0  0      -56.1729528510   -56.1729528510   0.019325688   0.029643730
   2  1  0      -56.1737882214    -0.0008353704   0.010886680   0.016731681
   3  2  0      -56.1739386396    -0.0001504182   0.001723634   0.002747782
   4  3  0      -56.1739482385    -0.0000095990   0.000911456   0.000655627
   5  4  0      -56.1739487266    -0.0000004881   0.000094320   0.000073907
   6  5  0      -56.1739487314    -0.0000000047   0.000004272   0.000004141
   7  6  0      -56.1739487314    -0.0000000000   0.000000276   0.000000205

          -----------------
          DENSITY CONVERGED
          -----------------
     TIME TO FORM FOCK OPERATORS=       0.0 SECONDS (       0.0 SEC/ITER)
     TIME TO SOLVE SCF EQUATIONS=       0.0 SECONDS (       0.0 SEC/ITER)

 FINAL RHF ENERGY IS      -56.1739487314 AFTER   7 ITERATIONS
 ...... END OF RHF CALCULATION ......
 CPU     0: STEP CPU TIME=     0.00 TOTAL CPU TIME=          0.0 (      0.0 MIN)
 TOTAL WALL CLOCK TIME=          0.0 SECONDS, CPU UTILIZATION IS    99.58%
 ..... END OF 1-ELECTRON GRADIENT ......
 CPU     0: STEP CPU TIME=     0.00 TOTAL CPU TIME=          0.0 (      0.0 MIN)
 TOTAL WALL CLOCK TIME=          0.0 SECONDS, CPU UTILIZATION IS    99.60%
 ...... END OF 2-ELECTRON GRADIENT ......
 CPU     0: STEP CPU TIME=     0.00 TOTAL CPU TIME=          0.0 (      0.0 MIN)
 TOTAL WALL CLOCK TIME=          0.0 SECONDS, CPU UTILIZATION IS    99.62%

          NSERCH=  1     ENERGY=     -56.1739487

                                 -----------------------
                                 GRADIENT (HARTREE/BOHR)
                                 -----------------------
        ATOM     ZNUC       DE/DX         DE/DY         DE/DZ
 --------------------------------------------------------------
    1  NITROGEN     7.0     0.0000000     0.0000000     0.0000000
    2  HYDROGEN     1.0     0.0018615    -0.0032242     0.0000000
    3  HYDROGEN     1.0     0.0018615     0.0032242     0.0000000
    4  HYDROGEN     1.0    -0.0037230     0.0000000     0.0000000

          MAXIMUM GRADIENT = 0.0037230    RMS GRADIENT = 0.0018615

 NSERCH:   1  E=      -56.1739487314  GRAD. MAX=  0.0037230  R.M.S.=  0.0018615

          HESSIAN UPDATED USING THE BFGS FORMULA
             ACTUAL ENERGY CHANGE WAS  -0.0027693781
          PREDICTED ENERGY CHANGE WAS  -0.0030139538 RATIO=  0.919
          MIN SEARCH, CORRECT HESSIAN, TRYING PURE NR STEP
               NR STEP HAS LENGTH         =   0.012535
          RADIUS OF STEP TAKEN=   0.01254  CURRENT TRUST RADIUS=   0.22940

 BEGINNING GEOMETRY SEARCH POINT NSERCH=   2 ...

 COORDINATES OF SYMMETRY UNIQUE ATOMS (ANGS)
   ATOM   CHARGE       X              Y              Z
 ------------------------------------------------------------
 NITROGEN    7.0  -0.0000000000   0.0000000000   0.0000000000
 HYDROGEN    1.0   0.9887869771   0.0000000000  -0.0000000000
 COORDINATES OF ALL ATOMS ARE (ANGS)
   ATOM   CHARGE       X              Y              Z
 ------------------------------------------------------------
 NITROGEN    7.0  -0.0000000000   0.0000000000   0.0000000000
 HYDROGEN    1.0  -0.4943934886   0.8563146411  -0.0000000000
 HYDROGEN    1.0  -0.4943934886  -0.8563146411  -0.0000000000
 HYDROGEN    1.0   0.9887869771   0.0000000000  -0.0000000000

          INTERNUCLEAR DISTANCES (ANGS.)
          ------------------------------

                1 NITR       2 HYDR       3 HYDR       4 HYDR  

   1 NITR    0.0000000    0.9887870 *  0.9887870 *  0.9887870 *
   2 HYDR    0.9887870 *  0.0000000    1.7126293 *  1.7126293 *
   3 HYDR    0.9887870 *  1.7126293 *  0.0000000    1.7126293 *
   4 HYDR    0.9887870 *  1.7126293 *  1.7126293 *  0.0000000  

  * ... LESS THAN  3.000

 ...... END OF ONE-ELECTRON INTEGRALS ......
 CPU     0: STEP CPU TIME=     0.00 TOTAL CPU TIME=          0.0 (      0.0 MIN)
 TOTAL WALL CLOCK TIME=          0.0 SECONDS, CPU UTILIZATION IS    99.62%
 TOTAL NUMBER OF NONZERO TWO-ELECTRON INTEGRALS =                3516
          1 INTEGRAL RECORDS WERE STORED ON DISK FILE  8.
  ...... END OF TWO-ELECTRON INTEGRALS .....
 CPU     0: STEP CPU TIME=     0.00 TOTAL CPU TIME=          0.0 (      0.0 MIN)
 TOTAL WALL CLOCK TIME=          0.0 SECONDS, CPU UTILIZATION IS    99.64%

          --------------------------
                 RHF SCF CALCULATION
          --------------------------
     DENSITY MATRIX CONV=  1.00E-05

 ITER EX DEM     TOTAL ENERGY        E CHANGE  DENSITY CHANGE    DIIS ERROR
          * * *   INITIATING DIIS PROCEDURE   * * *
   1  0  0      -56.1739725541   -56.1739725541   0.002173220   0.003294295
   2  1  0      -56.1739828780    -0.0000103239   0.001203762   0.001858134
   3  2  0      -56.1739847490    -0.0000018711   0.000188548   0.000304185
   4  3  0      -56.1739848652    -0.0000001162   0.000099595   0.000072008
   5  4  0      -56.1739848710    -0.0000000058   0.000010201   0.000007892
   6  5  0      -56.1739848710    -0.0000000001   0.000000509   0.000000453
   7  6  0      -56.1739848710    -0.0000000000   0.000000029   0.000000020

          -----------------
          DENSITY CONVERGED
          -----------------
     TIME TO FORM FOCK OPERATORS=       0.0 SECONDS (       0.0 SEC/ITER)
     TIME TO SOLVE SCF EQUATIONS=       0.0 SECONDS (       0.0 SEC/ITER)

 FINAL RHF ENERGY IS      -56.1739848710 AFTER   7 ITERATIONS
 ...... END OF RHF CALCULATION ......
 CPU     0: STEP CPU TIME=     0.00 TOTAL CPU TIME=          0.0 (      0.0 MIN)
 TOTAL WALL CLOCK TIME=          0.0 SECONDS, CPU UTILIZATION IS    99.66%
 ..... END OF 1-ELECTRON GRADIENT ......
 CPU     0: STEP CPU TIME=     0.00 TOTAL CPU TIME=          0.0 (      0.0 MIN)
 TOTAL WALL CLOCK TIME=          0.0 SECONDS, CPU UTILIZATION IS    99.66%
 ...... END OF 2-ELECTRON GRADIENT ......
 CPU     0: STEP CPU TIME=     0.00 TOTAL CPU TIME=          0.0 (      0.0 MIN)
 TOTAL WALL CLOCK TIME=          0.0 SECONDS, CPU UTILIZATION IS    99.66%

          NSERCH=  2     ENERGY=     -56.1739849

                                 -----------------------
                                 GRADIENT (HARTREE/BOHR)
                                 -----------------------
        ATOM     ZNUC       DE/DX         DE/DY         DE/DZ
 --------------------------------------------------------------
    1  NITROGEN     7.0     0.0000000     0.0000000     0.0000000
    2  HYDROGEN     1.0    -0.0001888     0.0003269     0.0000000
    3  HYDROGEN     1.0    -0.0001888    -0.0003269     0.0000000
    4  HYDROGEN     1.0     0.0003775     0.0000000     0.0000000

          MAXIMUM GRADIENT = 0.0003775    RMS GRADIENT = 0.0001888

 NSERCH:   2  E=      -56.1739848710  GRAD. MAX=  0.0003775  R.M.S.=  0.0001888

          HESSIAN UPDATED USING THE BFGS FORMULA
             ACTUAL ENERGY CHANGE WAS  -0.0000361396
          PREDICTED ENERGY CHANGE WAS  -0.0000404160 RATIO=  0.894
          MIN SEARCH, CORRECT HESSIAN, TRYING PURE NR STEP
               NR STEP HAS LENGTH         =   0.001154
          RADIUS OF STEP TAKEN=   0.00115  CURRENT TRUST RADIUS=   0.05000

 BEGINNING GEOMETRY SEARCH POINT NSERCH=   3 ...

 COORDINATES OF SYMMETRY UNIQUE ATOMS (ANGS)
   ATOM   CHARGE       X              Y              Z
 ------------------------------------------------------------
 NITROGEN    7.0  -0.0000000000  -0.0000000000   0.0000000000
 HYDROGEN    1.0   0.9884343752   0.0000000000  -0.0000000000
 COORDINATES OF ALL ATOMS ARE (ANGS)
   ATOM   CHARGE       X              Y              Z
 ------------------------------------------------------------
 NITROGEN    7.0  -0.0000000000  -0.0000000000   0.0000000000
 HYDROGEN    1.0  -0.4942171876   0.8560092789  -0.0000000000
 HYDROGEN    1.0  -0.4942171876  -0.8560092789  -0.0000000000
 HYDROGEN    1.0   0.9884343752   0.0000000000  -0.0000000000

          INTERNUCLEAR DISTANCES (ANGS.)
          ------------------------------

                1 NITR       2 HYDR       3 HYDR       4 HYDR  

   1 NITR    0.0000000    0.9884344 *  0.9884344 *  0.9884344 *
   2 HYDR    0.9884344 *  0.0000000    1.7120186 *  1.7120186 *
   3 HYDR    0.9884344 *  1.7120186 *  0.0000000    1.7120186 *
   4 HYDR    0.9884344 *  1.7120186 *  1.7120186 *  0.0000000  

  * ... LESS THAN  3.000

 ...... END OF ONE-ELECTRON INTEGRALS ......
 CPU     0: STEP CPU TIME=     0.00 TOTAL CPU TIME=          0.0 (      0.0 MIN)
 TOTAL WALL CLOCK TIME=          0.0 SECONDS, CPU UTILIZATION IS    99.67%
 TOTAL NUMBER OF NONZERO TWO-ELECTRON INTEGRALS =                3516
          1 INTEGRAL RECORDS WERE STORED ON DISK FILE  8.
  ...... END OF TWO-ELECTRON INTEGRALS .....
 CPU     0: STEP CPU TIME=     0.00 TOTAL CPU TIME=          0.0 (      0.0 MIN)
 TOTAL WALL CLOCK TIME=          0.0 SECONDS, CPU UTILIZATION IS    99.68%

          --------------------------
                 RHF SCF CALCULATION
          --------------------------
     DENSITY MATRIX CONV=  1.00E-05

 ITER EX DEM     TOTAL ENERGY        E CHANGE  DENSITY CHANGE    DIIS ERROR
          * * *   INITIATING DIIS PROCEDURE   * * *
   1  0  0      -56.1739851486   -56.1739851486   0.000199450   0.000302739
   2  1  0      -56.1739852358    -0.0000000872   0.000110686   0.000170779
   3  2  0      -56.1739852515    -0.0000000158   0.000017326   0.000027967
   4  3  0      -56.1739852525    -0.0000000010   0.000009171   0.000006627
   5  4  0      -56.1739852526    -0.0000000000   0.000000940   0.000000728

          -----------------
          DENSITY CONVERGED
          -----------------
     TIME TO FORM FOCK OPERATORS=       0.0 SECONDS (       0.0 SEC/ITER)
     TIME TO SOLVE SCF EQUATIONS=       0.0 SECONDS (       0.0 SEC/ITER)

 FINAL RHF ENERGY IS      -56.1739852526 AFTER   5 ITERATIONS
 ...... END OF RHF CALCULATION ......
 CPU     0: STEP CPU TIME=     0.00 TOTAL CPU TIME=          0.0 (      0.0 MIN)
 TOTAL WALL CLOCK TIME=          0.0 SECONDS, CPU UTILIZATION IS    99.69%
 ..... END OF 1-ELECTRON GRADIENT ......
 CPU     0: STEP CPU TIME=     0.00 TOTAL CPU TIME=          0.0 (      0.0 MIN)
 TOTAL WALL CLOCK TIME=          0.0 SECONDS, CPU UTILIZATION IS    99.70%
 ...... END OF 2-ELECTRON GRADIENT ......
 CPU     0: STEP CPU TIME=     0.00 TOTAL CPU TIME=          0.0 (      0.0 MIN)
 TOTAL WALL CLOCK TIME=          0.0 SECONDS, CPU UTILIZATION IS    99.71%

          NSERCH=  3     ENERGY=     -56.1739853

                                 -----------------------
                                 GRADIENT (HARTREE/BOHR)
                                 -----------------------
        ATOM     ZNUC       DE/DX         DE/DY         DE/DZ
 --------------------------------------------------------------
    1  NITROGEN     7.0     0.0000000     0.0000000     0.0000000
    2  HYDROGEN     1.0    -0.0000020     0.0000035     0.0000000
    3  HYDROGEN     1.0    -0.0000020    -0.0000035     0.0000000
    4  HYDROGEN     1.0     0.0000041     0.0000000     0.0000000

          MAXIMUM GRADIENT = 0.0000041    RMS GRADIENT = 0.0000020

 NSERCH:   3  E=      -56.1739852526  GRAD. MAX=  0.0000041  R.M.S.=  0.0000020


      ***** EQUILIBRIUM GEOMETRY LOCATED *****
 COORDINATES OF SYMMETRY UNIQUE ATOMS (ANGS)
   ATOM   CHARGE       X              Y              Z
 ------------------------------------------------------------
 NITROGEN    7.0  -0.0000000000  -0.0000000000   0.0000000000
 HYDROGEN    1.0   0.9884343752   0.0000000000  -0.0000000000
 COORDINATES OF ALL ATOMS ARE (ANGS)
   ATOM   CHARGE       X              Y              Z
 ------------------------------------------------------------
 NITROGEN    7.0  -0.0000000000  -0.0000000000   0.0000000000
 HYDROGEN    1.0  -0.4942171876   0.8560092789  -0.0000000000
 HYDROGEN    1.0  -0.4942171876  -0.8560092789  -0.0000000000
 HYDROGEN    1.0   0.9884343752   0.0000000000  -0.0000000000

          INTERNUCLEAR DISTANCES (ANGS.)
          ------------------------------

                1 NITR       2 HYDR       3 HYDR       4 HYDR  

   1 NITR    0.0000000    0.9884344 *  0.9884344 *  0.9884344 *
   2 HYDR    0.9884344 *  0.0000000    1.7120186 *  1.7120186 *
   3 HYDR    0.9884344 *  1.7120186 *  0.0000000    1.7120186 *
   4 HYDR    0.9884344 *  1.7120186 *  1.7120186 *  0.0000000  

  * ... LESS THAN  3.000


          NUCLEAR ENERGY    =       12.1700382119
          ELECTRONIC ENERGY =      -68.3440234645
          TOTAL ENERGY      =      -56.1739852526

          ------------------
          MOLECULAR ORBITALS
          ------------------

                      1          2          3          4          5
                  -15.5147    -1.1187    -0.6457    -0.6457    -0.3793
                     A1'        A1'        E'         E'         A2" 
    1  N  1  S    0.994820  -0.201222   0.000000   0.000000   0.000000
    2  N  1  S    0.025112   0.416580   0.000000   0.000000   0.000000
    3  N  1  X    0.000000   0.000000   0.472246   0.000000   0.000000
    4  N  1  Y    0.000000   0.000000   0.000000   0.472246   0.000000
    5  N  1  Z    0.000000   0.000000   0.000000   0.000000   0.591279
    6  N  1  S   -0.000590   0.429756   0.000000   0.000000   0.000000
    7  N  1  X    0.000000   0.000000   0.280124   0.000000   0.000000
    8  N  1  Y    0.000000   0.000000   0.000000   0.280124   0.000000
    9  N  1  Z    0.000000   0.000000   0.000000   0.000000   0.555893
   10  N  1 XX   -0.003743   0.022463   0.024922   0.000000   0.000000
   11  N  1 YY   -0.003743   0.022463  -0.024922   0.000000   0.000000
   12  N  1 ZZ   -0.003605  -0.012242   0.000000   0.000000   0.000000
   13  N  1 XY    0.000000   0.000000   0.000000  -0.028777   0.000000
   14  N  1 XZ    0.000000   0.000000   0.000000   0.000000   0.000000
   15  N  1 YZ    0.000000   0.000000   0.000000   0.000000   0.000000
   16  H  2  S    0.000212   0.135353  -0.140627   0.243574   0.000000
   17  H  2  S    0.000304   0.013373  -0.066922   0.115912   0.000000
   18  H  3  S    0.000212   0.135353  -0.140627  -0.243574   0.000000
   19  H  3  S    0.000304   0.013373  -0.066922  -0.115912   0.000000
   20  H  4  S    0.000212   0.135353   0.281255   0.000000   0.000000
   21  H  4  S    0.000304   0.013373   0.133843   0.000000   0.000000

                      6          7          8          9         10
                    0.2318     0.3319     0.3319     0.9386     0.9386
                     A1'        E'         E'         E'         E'  
    1  N  1  S   -0.135951   0.000000   0.000000   0.000000   0.000000
    2  N  1  S    0.131631   0.000000   0.000000   0.000000   0.000000
    3  N  1  X    0.000000  -0.309035   0.000000  -0.416414   0.000000
    4  N  1  Y    0.000000   0.000000  -0.309035   0.000000  -0.416414
    5  N  1  Z    0.000000   0.000000   0.000000   0.000000   0.000000
    6  N  1  S    2.057119   0.000000   0.000000   0.000000   0.000000
    7  N  1  X    0.000000  -1.229891   0.000000   1.495193   0.000000
    8  N  1  Y    0.000000   0.000000  -1.229891   0.000000   1.495193
    9  N  1  Z    0.000000   0.000000   0.000000   0.000000   0.000000
   10  N  1 XX   -0.034982  -0.000506   0.000000  -0.156380   0.000000
   11  N  1 YY   -0.034982   0.000506   0.000000   0.156380   0.000000
   12  N  1 ZZ   -0.048805   0.000000   0.000000   0.000000   0.000000
   13  N  1 XY    0.000000   0.000000   0.000584   0.000000   0.180572
   14  N  1 XZ    0.000000   0.000000   0.000000   0.000000   0.000000
   15  N  1 YZ    0.000000   0.000000   0.000000   0.000000   0.000000
   16  H  2  S   -0.041416  -0.013301   0.023039   0.375779  -0.650868
   17  H  2  S   -0.985217  -0.938059   1.624767   0.129310  -0.223972
   18  H  3  S   -0.041416  -0.013301  -0.023039   0.375779   0.650868
   19  H  3  S   -0.985217  -0.938059  -1.624767   0.129310   0.223972
   20  H  4  S   -0.041416   0.026603   0.000000  -0.751557   0.000000
   21  H  4  S   -0.985217   1.876119   0.000000  -0.258620   0.000000

                     11         12         13         14         15
                    0.9744     1.0589     1.2658     1.2658     1.3277
                     A2"        A1'        E'         E'         A1' 
    1  N  1  S    0.000000   0.092137   0.000000   0.000000   0.041986
    2  N  1  S    0.000000   0.111519   0.000000   0.000000   1.684464
    3  N  1  X    0.000000   0.000000  -1.026825   0.000000   0.000000
    4  N  1  Y    0.000000   0.000000   0.000000  -1.026825   0.000000
    5  N  1  Z    1.009767   0.000000   0.000000   0.000000   0.000000
    6  N  1  S    0.000000  -0.977962   0.000000   0.000000  -4.023495
    7  N  1  X    0.000000   0.000000   1.292344   0.000000   0.000000
    8  N  1  Y    0.000000   0.000000   0.000000   1.292344   0.000000
    9  N  1  Z   -1.029671   0.000000   0.000000   0.000000   0.000000
   10  N  1 XX    0.000000   0.169659   0.154229   0.000000   0.336547
   11  N  1 YY    0.000000   0.169659  -0.154229   0.000000   0.336547
   12  N  1 ZZ    0.000000  -0.143735   0.000000   0.000000   0.285242
   13  N  1 XY    0.000000   0.000000   0.000000  -0.178088   0.000000
   14  N  1 XZ    0.000000   0.000000   0.000000   0.000000   0.000000
   15  N  1 YZ    0.000000   0.000000   0.000000   0.000000   0.000000
   16  H  2  S    0.000000   0.707361  -0.294050   0.509309  -0.121245
   17  H  2  S    0.000000  -0.156357   0.669076  -1.158874   0.948251
   18  H  3  S    0.000000   0.707361  -0.294050  -0.509309  -0.121245
   19  H  3  S    0.000000  -0.156357   0.669076   1.158874   0.948251
   20  H  4  S    0.000000   0.707361   0.588099   0.000000  -0.121245
   21  H  4  S    0.000000  -0.156357  -1.338153   0.000000   0.948251

     ----------------------------------------------------------------
     PROPERTY VALUES FOR THE RHF   SELF-CONSISTENT FIELD WAVEFUNCTION
     ----------------------------------------------------------------

          -----------------
          ENERGY COMPONENTS
          -----------------

         WAVEFUNCTION NORMALIZATION =       1.0000000000

                ONE ELECTRON ENERGY =    -100.0797794849
                TWO ELECTRON ENERGY =      31.7357560204
           NUCLEAR REPULSION ENERGY =      12.1700382119
                                      ------------------
                       TOTAL ENERGY =     -56.1739852526

 ELECTRON-ELECTRON POTENTIAL ENERGY =      31.7357560204
  NUCLEUS-ELECTRON POTENTIAL ENERGY =    -156.1573442146
   NUCLEUS-NUCLEUS POTENTIAL ENERGY =      12.1700382119
                                      ------------------
             TOTAL POTENTIAL ENERGY =    -112.2515499822
               TOTAL KINETIC ENERGY =      56.0775647297
                 VIRIAL RATIO (V/T) =       2.0017194135

  ...... PI ENERGY ANALYSIS ......

 ENERGY ANALYSIS:
            FOCK ENERGY=    -36.6082669242
          BARE H ENERGY=   -100.0797794849
     ELECTRONIC ENERGY =    -68.3440232046
         KINETIC ENERGY=     56.0775647297
          N-N REPULSION=     12.1700382119
           TOTAL ENERGY=    -56.1739849926
        SIGMA PART(1+2)=    -62.0862069863
               (K,V1,2)=     52.9787150334   -141.3014536545     26.2365316348
           PI PART(1+2)=     -6.2578162183
               (K,V1,2)=      3.0988496962    -14.8558905600      5.4992246455
  SIGMA SKELETON, ERROR=    -49.9161687744     -0.0000000000
             MIXED PART= 0.00000E+00 0.00000E+00 0.00000E+00 0.00000E+00
 ...... END OF PI ENERGY ANALYSIS ......

          ---------------------------------------
          MULLIKEN AND LOWDIN POPULATION ANALYSES
          ---------------------------------------

     ATOMIC MULLIKEN POPULATION IN EACH MOLECULAR ORBITAL

                      1          2          3          4          5

                  2.000000   2.000000   2.000000   2.000000   2.000000

    1             1.999785   1.576624   1.253103   1.253103   2.000000
    2             0.000072   0.141125   0.124483   0.373449   0.000000
    3             0.000072   0.141125   0.124483   0.373449   0.000000
    4             0.000072   0.141125   0.497932   0.000000   0.000000

               ----- POPULATIONS IN EACH AO -----
                             MULLIKEN      LOWDIN
              1  N  1  S      1.99505     1.97849
              2  N  1  S      0.72561     0.48320
              3  N  1  X      0.75704     0.69544
              4  N  1  Y      0.75704     0.69595
              5  N  1  Z      1.04059     1.03469
              6  N  1  S      0.80716     0.38761
              7  N  1  X      0.48570     0.54516
              8  N  1  Y      0.48570     0.54650
              9  N  1  Z      0.95941     0.96531
             10  N  1 XX      0.03733     0.19896
             11  N  1 YY      0.03733     0.19896
             12  N  1 ZZ     -0.01571     0.12386
             13  N  1 XY      0.01036     0.01621
             14  N  1 XZ      0.00000     0.00000
             15  N  1 YZ      0.00000     0.00000
             16  H  2  S      0.49934     0.45133
             17  H  2  S      0.13979     0.25781
             18  H  3  S      0.49934     0.45133
             19  H  3  S      0.13979     0.25781
             20  H  4  S      0.49934     0.45342
             21  H  4  S      0.13979     0.25792

          ----- MULLIKEN ATOMIC OVERLAP POPULATIONS -----
          (OFF-DIAGONAL ELEMENTS NEED TO BE MULTIPLIED BY 2)

             1           2           3           4

    1    7.0504560
    2    0.3440528   0.3349250
    3    0.3440528  -0.0199246   0.3349250
    4    0.3440528  -0.0199246  -0.0199246   0.3349250

          TOTAL MULLIKEN AND LOWDIN ATOMIC POPULATIONS
       ATOM         MULL.POP.    CHARGE          LOW.POP.     CHARGE
    1 NITROGEN      8.082614   -1.082614         7.870360   -0.870360
    2 HYDROGEN      0.639129    0.360871         0.709147    0.290853
    3 HYDROGEN      0.639129    0.360871         0.709147    0.290853
    4 HYDROGEN      0.639129    0.360871         0.711346    0.288654

          -------------------------------
          BOND ORDER AND VALENCE ANALYSIS     BOND ORDER THRESHOLD=0.050
          -------------------------------

                   BOND                       BOND                       BOND
  ATOM PAIR DIST  ORDER      ATOM PAIR DIST  ORDER      ATOM PAIR DIST  ORDER
    1   2  0.988  0.847        1   3  0.988  0.847        1   4  0.988  0.847

                       TOTAL       BONDED        FREE
      ATOM            VALENCE     VALENCE     VALENCE
    1 NITROGEN          2.540       2.540      -0.000
    2 HYDROGEN          0.844       0.844      -0.000
    3 HYDROGEN          0.844       0.844      -0.000
    4 HYDROGEN          0.844       0.844      -0.000

          ---------------------
          ELECTROSTATIC MOMENTS
          ---------------------

 POINT   1           X           Y           Z (BOHR)    CHARGE
                -0.000000    0.000000    0.000000       -0.00 (A.U.)
         DX          DY          DZ         /D/  (DEBYE)
    -0.000000    0.000000   -0.000000    0.000000
 ...... END OF PROPERTY EVALUATION ......
 CPU     0: STEP CPU TIME=     0.00 TOTAL CPU TIME=          0.0 (      0.0 MIN)
 TOTAL WALL CLOCK TIME=          0.0 SECONDS, CPU UTILIZATION IS    99.71%
  $VIB   
          IVIB=   0 IATOM=   0 ICOORD=   0 E=      -56.1739852526
  0.000000000E+00 0.000000000E+00 0.000000000E+00-2.048946170E-06 3.548878868E-06
  0.000000000E+00-2.048946170E-06-3.548878868E-06 0.000000000E+00 4.097892339E-06
  0.000000000E+00 0.000000000E+00
 -3.386312564E-15 7.801953830E-15-1.896081933E-31
 ......END OF GEOMETRY SEARCH......
 CPU     0: STEP CPU TIME=     0.00 TOTAL CPU TIME=          0.0 (      0.0 MIN)
 TOTAL WALL CLOCK TIME=          0.0 SECONDS, CPU UTILIZATION IS    99.71%
               999184  WORDS OF DYNAMIC MEMORY USED
 EXECUTION OF GAMESS TERMINATED NORMALLY 13:32:11 21-JUN-2021    
 DDI: 263640 bytes (0.3 MB / 0 MWords) used by master data server.

 ----------------------------------------
 CPU timing information for all processes
 ========================================
 0: 0.31 + 0.13 = 0.44
 ----------------------------------------
 ddikick.x: exited gracefully.
unset echo
----- accounting info -----
Files used on the master node jackson-Z97X-UD3H-BK were:
-rw-rw-r-- 1 jackson jackson     343 Jun 21 13:32 /home/jackson/Source/GamessRuns/4c.F05
-rw-rw-r-- 1 jackson jackson  180016 Jun 21 13:32 /home/jackson/Source/GamessRuns/4c.F08
-rw-rw-r-- 1 jackson jackson 1668720 Jun 21 13:32 /home/jackson/Source/GamessRuns/4c.F10
ls: No match.
ls: No match.
ls: No match.
Mon 21 Jun 2021 01:32:14 PM CDT
0.1u 0.0s 0:03.28 7.0% 0+0k 0+16io 0pf+0w
