----- GAMESS execution script 'rungms' -----
This job is running on host jackson-Z97X-UD3H-BK
under operating system Linux at Wed 23 Jun 2021 05:17:10 PM CDT
Available scratch disk space (Kbyte units) at beginning of the job is
Filesystem     1K-blocks     Used Available Use% Mounted on
/dev/sda2      114337956 62297508  46189312  58% /
GAMESS temporary binary files will be written to /home/jackson/Source/GamessRuns
GAMESS supplementary output files will be written to /home/jackson/Source/gamess/GamessRunsOutput
Copying input file ./4c_hessian.inp to your run's scratch directory...
cp ./4c_hessian.inp /home/jackson/Source/GamessRuns/4c_hessian.F05
unset echo
/home/jackson/Source/gamess/ddikick.x /home/jackson/Source/gamess/gamess.01.x 4c_hessian -ddi 1 1 jackson-Z97X-UD3H-BK -scr /home/jackson/Source/GamessRuns

 Distributed Data Interface kickoff program.
 Initiating 1 compute processes on 1 nodes to run the following command:
 /home/jackson/Source/gamess/gamess.01.x 4c_hessian 

          *******************************************************
          *                                                     *
          *          GAMESS VERSION = 30 SEP 2020 (R2)          *
          *                                                     *
          *              doi.org/10.1063/5.0005188              *
          *                                                     *
          **************** 64 BIT LINUX VERSION *****************

  GAMESS HAS BEEN MADE POSSIBLE WITH IMPORTANT CONTRIBUTIONS FROM
  THE FOLLOWING INDIVIDUALS (IN ALPHABETICAL ORDER):

     IVANA ADAMOVIC, CHRISTINE AIKENS, TOMOKO AKAMA,
     YURI ALEXEEV, YURIKO AOKI, POOJA ARORA, TOSHIO ASADA,
     ANDREY ASADCHEV, KIM K. BALDRIDGE, PRADIPTA BANDYOPADHYAY,
     MARIA BARYSZ, ROB BELL, JONATHAN BENTZ, COLLEEN BERTONI,
     JERRY A. BOATZ, BRETT BODE, KURT BRORSEN, KURT R. BRORSEN,
     LAIMUTIS BYTAUTAS, CALEB CARLIN, LAURA CARRINGTON,
     GALINA CHABAN, BENOIT CHAMPAGNE, WEI CHEN, MAHITO CHIBA,
     DAN CHIPMAN, CHEOL HO CHOI, TANNER CULPITT,
     DIPAYAN DATTA, PAUL DAY, ALBERT DEFUSCO,
     NUWAN DESILVA, J. EMILIANO DEUSTUA,
     TIM DUDLEY, MICHEL DUPUIS, STEVEN T. ELBERT,
     DMITRI FEDOROV, ALEX FINDLATER, GRAHAM FLETCHER,
     MARK FREITAG, CHRISTIAN FRIEDL, DAVID GARMER,
     IGOR S. GERASIMOV, KURT GLAESEMANN, MARK S. GORDON,
     JEFFREY GOUR, FENG LONG GU, EMILIE B. GUIDEZ,
     ANASTASIA GUNINA, SHARON HAMMES-SCHIFFER, MASATAKE HARUTA,
     KIMIHIKO HIRAO, YASUHIRO IKABATA, TZVETELIN IORDANOV,
     STEPHAN IRLE, KAZUYA ISHIMURA, JOE IVANIC, FRANK JENSEN,
     JAN H. JENSEN, VISVALDAS KAIRYS, MUNEAKI KAMIYA,
     MICHIO KATOUDA, NAOAKI KAWAKAMI, DAN KEMP, BERNARD KIRTMAN,
     KAZUO KITAURA, MARIUSZ KLOBUKOWSKI, MASATO KOBAYASHI,
     PRAKASHAN KORAMBATH, JACEK KORCHOWIEC, SHIRO KOSEKI,
     KAROL KOWALSKI, JIMMY KROMANN, STANISLAW KUCHARSKI,
     HENRY KURTZ, SAROM SOK LEANG, HUI LI, SHUHUA LI, WEI LI,
     JESSE LUTZ, ALEKSANDR O. LYKHIN, MARCIN MAKOWSKI,
     JOANI MATO, NIKITA MATSUNAGA, BENEDETTA MENNUCCI,
     GRANT MERRILL, NORIYUKI MINEZAWA, VLADIMIR MIRONOV,
     EISAKU MIYOSHI, JOHN A. MONTGOMERY JR., HIROTOSHI MORI,
     JONATHAN MULLIN, MONIKA MUSIAL, SHIGERU NAGASE,
     TAKESHI NAGATA, HIROMI NAKAI, TAKAHITO NAKAJIMA,
     YUYA NAKAJIMA, HARUYUKI NAKANO, HIROYA NAKATA, SEAN NEDD,
     HEATHER NETZLOFF, KIET A. NGUYEN, YOSHIO NISHIMOTO,
     BOSILJKA NJEGIC, RYAN OLSON, MIKE PAK, ROBERTO PEVERATI,
     BUU PHAM, PIOTR PIECUCH, ANNA POMOGAEVA, DAVID POOLE,
     SPENCER PRUITT, OLIVIER QUINET, LUKE ROSKOP,
     KLAUS RUEDENBERG, ANDREW SAND, TOSAPORN SATTASATHUCHANA,
     NOZOMI SAWADA, MICHAEL W. SCHMIDT, PATRICK E. SCHNEIDER,
     JUNJI SEINO, PRACHI SHARMA, JUN SHEN, JIM SHOEMAKER,
     YINAN SHU, DEJUN SI, JONATHAN SKONE, LYUDMILA SLIPCHENKO,
     TONY SMITH, JIE SONG, MARK SPACKMAN, CASPER STEINMANN,
     WALT STEVENS, PEIFENG SU, SHUJUN SU, CHET SWALINA,
     TETSUYA TAKETSUGU, ZHEN TAO, NANDUN THELLAMUREGE
     SEIKEN TOKURA, JACOPO TOMASI, TSUGUKI TOUMA, TAKAO TSUNEDA,
     HIROAKI UMEDA, JORGE LUIS GALVEZ VALLEJO, YALI WANG,
     SIMON WEBB, AARON WEST, THERESA L. WINDUS, MARTA WLOCH,
     PENG XU, KIYOSHI YAGI, SUSUMU YANAGISAWA, YANG YANG,
     SOOHAENG YOO, TAKESHI YOSHIKAWA, FEDERICO ZAHARIEV,
     TOBY ZENG

  WHO ARE SUPPORTED BY THEIR INSTITUTION/UNIVERSITY/COMPANY/GROUP
  (IN ALPHABETICAL ORDER):

     EP ANALYTICS, FACULTES UNIVERSITAIRES NOTRE-DAME DE LA PAIX,
     INSTITUTE FOR MOLECULAR SCIENCE, IOWA STATE UNIVERSITY,
     JACKSON STATE UNIVERSITY, JOHANNES KEPLER UNIVERSITY LINZ,
     KYUSHU UNIVERSITY, MICHIGAN STATE UNIVERSITY,
     MIE UNIVERSITY, MOSCOW STATE UNIVERSITY,
     N. COPERNICUS UNIVERSITY, NAGOYA UNIVERSITY,
     NANJING UNIVERSITY, NAT. INST. OF ADVANCED INDUSTRIAL
     SCIENCE AND TECHNOLOGY, NATIONAL INST. OF STANDARDS AND
     TECHNOLOGY, NESMEYANOV INSTITUTE OF ORGANOELEMENT COMPOUNDS
     OF RUSSIAN ACADEMY OF SCIENCES, OSAKA PREFECTURE UNIVERSITY,
     PENNSYLVANIA STATE UNIVERSITY, TOKYO INSTITUTE OF TECHNOLOGY,
     UNIVERSITY OF AARHUS, UNIVERSITY OF ALBERTA,
     UNIVERSITY OF CALIFORNIA AT SANTA BARBARA,
     UNIVERSITY OF COPENHAGEN, UNIVERSITY OF IOWA,
     UNIVERSITY OF MEMPHIS, UNIVERSITY OF MINNESOTA,
     UNIVERSITY OF NEBRASKA, UNIVERSITY OF NEW ENGLAND,
     UNIVERSITY OF NOTRE DAME, UNIVERSITY OF PISA,
     UNIVERSITY OF SILESIA, UNIVERSITY OF TOKYO,
     UNIVERSITY OF ZURICH, WASEDA UNIVERSITY, YALE UNIVERSITY

  GAMESS SOFTWARE MANAGEMENT TEAM FOR THIS RELEASE:
     MARK S. GORDON (TEAM LEAD),
     BRETT BODE (SENIOR ADVISOR),
     GIUSEPPE BARCA,
     COLLEEN BERTONI,
     KRISTOPHER KEIPERT (ADVISOR),
     SAROM S. LEANG (DEVELOPMENT LEAD),
     BUU PHAM,
     JORGE LUIS GALVEZ VALLEJO (WEBSITE ADMINISTRATOR),
     PENG XU

 EXECUTION OF GAMESS BEGUN 17:17:10 23-JUN-2021    

            ECHO OF THE FIRST FEW INPUT CARDS -
 INPUT CARD>! Assignment 1 from Dr Gordon                                                   
 INPUT CARD>! NH3 with HF, and 6-31G(d) basis set - hessian run                             
 INPUT CARD>! use C2v symmetry                                                              
 INPUT CARD>!                                                                               
 INPUT CARD> $CONTRL SCFTYP=RHF RUNTYP=HESSIAN $END                                         
 INPUT CARD> $BASIS  GBASIS=N31 NGAUSS=6 NDFUNC=1 $END                                      
 INPUT CARD> $DATA                                                                          
 INPUT CARD>NH3 - 6-31G(d) - hessian                                                        
 INPUT CARD>Dnh      3                                                                      
 INPUT CARD>                                                                                
 INPUT CARD>NITROGEN    7.0  -0.0000000000  -0.0000000000   0.0000000000                    
 INPUT CARD>HYDROGEN   1.0   0.9884849435   0.0000000000   0.0000000000                     
 INPUT CARD> $END                                                                           
    1000000 WORDS OF MEMORY AVAILABLE

     BASIS OPTIONS
     -------------
     GBASIS=N31          IGAUSS=       6      POLAR=POPN31  
     NDFUNC=       1     NFFUNC=       0     DIFFSP=       F
     NPFUNC=       0      DIFFS=       F     BASNAM=        


     RUN TITLE
     ---------
 NH3 - 6-31G(d) - hessian                                                        

 THE POINT GROUP OF THE MOLECULE IS DNH     
 THE ORDER OF THE PRINCIPAL AXIS IS     3

 ATOM      ATOMIC                      COORDINATES (BOHR)
           CHARGE         X                   Y                   Z
 NITROGEN    7.0    -0.0000000000       -0.0000000000        0.0000000000
 HYDROGEN    1.0    -0.9339828431        1.6177057377        0.0000000000
 HYDROGEN    1.0    -0.9339828431       -1.6177057377        0.0000000000
 HYDROGEN    1.0     1.8679656862        0.0000000000        0.0000000000

          INTERNUCLEAR DISTANCES (ANGS.)
          ------------------------------

                1 NITR       2 HYDR       3 HYDR       4 HYDR  

   1 NITR    0.0000000    0.9884849 *  0.9884849 *  0.9884849 *
   2 HYDR    0.9884849 *  0.0000000    1.7121061 *  1.7121061 *
   3 HYDR    0.9884849 *  1.7121061 *  0.0000000    1.7121061 *
   4 HYDR    0.9884849 *  1.7121061 *  1.7121061 *  0.0000000  

  * ... LESS THAN  3.000


     ATOMIC BASIS SET
     ----------------
 THE CONTRACTED PRIMITIVE FUNCTIONS HAVE BEEN UNNORMALIZED
 THE CONTRACTED BASIS FUNCTIONS ARE NOW NORMALIZED TO UNITY

  SHELL TYPE  PRIMITIVE        EXPONENT          CONTRACTION COEFFICIENT(S)

 NITROGEN  

      1   S       1          4173.5114600    0.001834772160
      1   S       2           627.4579110    0.013994627002
      1   S       3           142.9020930    0.068586551812
      1   S       4            40.2343293    0.232240873040
      1   S       5            12.8202129    0.469069948082
      1   S       6             4.3904370    0.360455199063

      2   L       7            11.6263619   -0.114961181702    0.067579743878
      2   L       8             2.7162798   -0.169117478561    0.323907295893
      2   L       9             0.7722184    1.145851947027    0.740895139755

      3   L      10             0.2120315    1.000000000000    1.000000000000

      4   D      11             0.8000000    1.000000000000

 HYDROGEN  

      9   S      12            18.7311370    0.033494604338
      9   S      13             2.8253944    0.234726953484
      9   S      14             0.6401217    0.813757326146

     10   S      15             0.1612778    1.000000000000

 TOTAL NUMBER OF BASIS SET SHELLS             =   10
 NUMBER OF CARTESIAN GAUSSIAN BASIS FUNCTIONS =   21
 NUMBER OF ELECTRONS                          =   10
 CHARGE OF MOLECULE                           =    0
 SPIN MULTIPLICITY                            =    1
 NUMBER OF OCCUPIED ORBITALS (ALPHA)          =    5
 NUMBER OF OCCUPIED ORBITALS (BETA )          =    5
 TOTAL NUMBER OF ATOMS                        =    4
 THE NUCLEAR REPULSION ENERGY IS       12.1694156244

     $CONTRL OPTIONS
     ---------------
 SCFTYP=RHF          RUNTYP=HESSIAN      EXETYP=RUN     
 MPLEVL=       0     CITYP =NONE         CCTYP =NONE         VBTYP =NONE    
 DFTTYP=NONE         TDDFT =NONE    
 MULT  =       1     ICHARG=       0     NZVAR =       0     COORD =UNIQUE  
 PP    =NONE         RELWFN=NONE         LOCAL =NONE         NUMGRD=       F
 ISPHER=      -1     NOSYM =       0     MAXIT =      30     UNITS =ANGS    
 PLTORB=       F     MOLPLT=       F     AIMPAC=       F     FRIEND=        
 NPRINT=       7     IREST =       0     GEOM  =INPUT   
 NORMF =       0     NORMP =       0     ITOL  =      20     ICUT  =       9
 INTTYP=BEST         GRDTYP=BEST         QMTTOL= 1.0E-06

     $SYSTEM OPTIONS
     ---------------
  REPLICATED MEMORY=     1000000 WORDS (ON EVERY NODE).
 DISTRIBUTED MEMDDI=           0 MILLION WORDS IN AGGREGATE,
 MEMDDI DISTRIBUTED OVER   1 PROCESSORS IS           0 WORDS/PROCESSOR.
 TOTAL MEMORY REQUESTED ON EACH PROCESSOR=     1000000 WORDS.
 TIMLIM=      525600.00 MINUTES, OR     365.0 DAYS.
 PARALL= F  BALTYP=  DLB     KDIAG=    0  COREFL= F
 MXSEQ2=     300 MXSEQ3=     150  mem10=         0  mem22=         0

 Using Gaussians for PCM contribution to MEP, params: 0.10000E+01 0.10000E-07

          ----------------
          PROPERTIES INPUT
          ----------------

     MOMENTS            FIELD           POTENTIAL          DENSITY
 IEMOM =       1   IEFLD =       0   IEPOT =       0   IEDEN =       0
 WHERE =COMASS     WHERE =NUCLEI     WHERE =NUCLEI     WHERE =NUCLEI  
 OUTPUT=BOTH       OUTPUT=BOTH       OUTPUT=BOTH       OUTPUT=BOTH    
 IEMINT=       0   IEFINT=       0                     IEDINT=       0
                                                       MORB  =       0
          EXTRAPOLATION IN EFFECT
          DIIS IN EFFECT
 ORBITAL PRINTING OPTION: NPREO=     1    21     2     1

     -------------------------------
     INTEGRAL TRANSFORMATION OPTIONS
     -------------------------------
     NWORD  =            0
     CUTOFF = 1.0E-09     MPTRAN =       0
     DIRTRF =       F     AOINTS =DUP     

          ----------------------
          INTEGRAL INPUT OPTIONS
          ----------------------
 NOPK  =       1 NORDER=       0 SCHWRZ=       F

     ------------------------------------------
     THE POINT GROUP IS DNH, NAXIS= 3, ORDER=12
     ------------------------------------------

     DIMENSIONS OF THE SYMMETRY SUBSPACES ARE
 A1' =    7     A1" =    0     A2' =    0     A2" =    2     E'' =    1
 E'  =    5

 ..... DONE SETTING UP THE RUN .....
 STEP CPU TIME =     0.00 TOTAL CPU TIME =          0.0 (      0.0 MIN)
 TOTAL WALL CLOCK TIME=          0.0 SECONDS, CPU UTILIZATION IS    99.81%

     ---------------------------------
     HESSIAN MATRIX CONTROL PARAMETERS
     ---------------------------------
     METHOD=ANALYTIC   NVIB  =       2   VIBSIZ= 0.01000
     RDHESS=       F   PURIFY=       F   PRTIFC=       F
     VIBANL=       T   DECOMP=       F   PROJCT=       F
     SCLFAC= 1.00000   PRTSCN=       F   NPRT  =       0
     PULCOR=       F   NPUN  =       0   REDOVB=       T
     HSSTYP=GENERAL 
     THERMOCHEMISTRY WILL BE PRINTED FOR    1 TEMPERATURES:
      298.15000
 Old integral subroutine is used

     ------------------------------
     CPHF RESPONSE SOLUTION OPTIONS
     ------------------------------
     POLAR  =       F     NWORD  =       0
     CPHF   =AO      

          ********************
          1 ELECTRON INTEGRALS
          ********************
 ...... END OF ONE-ELECTRON INTEGRALS ......
 STEP CPU TIME =     0.00 TOTAL CPU TIME =          0.0 (      0.0 MIN)
 TOTAL WALL CLOCK TIME=          0.0 SECONDS, CPU UTILIZATION IS    99.81%

          -------------
          GUESS OPTIONS
          -------------
          GUESS =HUCKEL            NORB  =       0          NORDER=       0
          MIX   =       F          PRTMO =       F          PUNMO =       F
          TOLZ  = 1.0E-08          TOLE  = 1.0E-05
          SYMDEN=       F          PURIFY=       F

 INITIAL GUESS ORBITALS GENERATED BY HUCKEL   ROUTINE.
 HUCKEL GUESS REQUIRES      6369 WORDS.

 SYMMETRIES FOR INITIAL GUESS ORBITALS FOLLOW.   BOTH SET(S).
     5 ORBITALS ARE OCCUPIED (    1 CORE ORBITALS).
     2=A1'      3=E'       4=?E'      5=A2"      6=?E'      7=E'       8=?A1'
     9=A1'     10=A1'     11=A1'     12=A1'     13=A2"     14=E''     15=E'' 
 ...... END OF INITIAL ORBITAL SELECTION ......
 STEP CPU TIME =     0.00 TOTAL CPU TIME =          0.0 (      0.0 MIN)
 TOTAL WALL CLOCK TIME=          0.0 SECONDS, CPU UTILIZATION IS    99.83%

                    ----------------------
                    AO INTEGRAL TECHNOLOGY
                    ----------------------
     S,P,L SHELL ROTATED AXIS INTEGRALS, REPROGRAMMED BY
        KAZUYA ISHIMURA (IMS) AND JOSE SIERRA (SYNSTAR).
     S,P,D,L SHELL ROTATED AXIS INTEGRALS PROGRAMMED BY
        KAZUYA ISHIMURA (INSTITUTE FOR MOLECULAR SCIENCE).
     S,P,D,F,G SHELL TO TOTAL QUARTET ANGULAR MOMENTUM SUM 5,
        ERIC PROGRAM BY GRAHAM FLETCHER (ELORET AND NASA ADVANCED
        SUPERCOMPUTING DIVISION, AMES RESEARCH CENTER).
     S,P,D,F,G,L SHELL GENERAL RYS QUADRATURE PROGRAMMED BY
        MICHEL DUPUIS (PACIFIC NORTHWEST NATIONAL LABORATORY).

          --------------------
          2 ELECTRON INTEGRALS
          --------------------

 THE -PK- OPTION IS OFF, THE INTEGRALS ARE NOT IN SUPERMATRIX FORM.
 STORING   15000 INTEGRALS/RECORD ON DISK, USING 12 BYTES/INTEGRAL.
 TWO ELECTRON INTEGRAL EVALUATION REQUIRES   90451 WORDS OF MEMORY.
 II,JST,KST,LST =  1  1  1  1 NREC =         1 INTLOC =    1
 II,JST,KST,LST =  2  1  1  1 NREC =         1 INTLOC =    2
 II,JST,KST,LST =  3  1  1  1 NREC =         1 INTLOC =   34
 II,JST,KST,LST =  4  1  1  1 NREC =         1 INTLOC =  214
 II,JST,KST,LST =  5  1  1  1 NREC =         1 INTLOC = 1189
 II,JST,KST,LST =  6  1  1  1 NREC =         1 INTLOC = 1189
 II,JST,KST,LST =  7  1  1  1 NREC =         1 INTLOC = 1189
 II,JST,KST,LST =  8  1  1  1 NREC =         1 INTLOC = 1189
 II,JST,KST,LST =  9  1  1  1 NREC =         1 INTLOC = 1189
 II,JST,KST,LST = 10  1  1  1 NREC =         1 INTLOC = 2070
 TOTAL NUMBER OF NONZERO TWO-ELECTRON INTEGRALS =                3516
          1 INTEGRAL RECORDS WERE STORED ON DISK FILE  8.
  ...... END OF TWO-ELECTRON INTEGRALS .....
 STEP CPU TIME =     0.01 TOTAL CPU TIME =          0.0 (      0.0 MIN)
 TOTAL WALL CLOCK TIME=          0.0 SECONDS, CPU UTILIZATION IS    99.90%

          --------------------------
                 RHF SCF CALCULATION
          --------------------------

     NUCLEAR ENERGY =        12.1694156244
     MAXIT =   30     NPUNCH=    2
     EXTRAP=T  DAMP=F  SHIFT=F  RSTRCT=F  DIIS=T  DEM=F  SOSCF=F
     DENSITY MATRIX CONV=  1.00E-05
     MEMORY REQUIRED FOR RHF ITERS=     34046 WORDS.

 ITER EX DEM     TOTAL ENERGY        E CHANGE  DENSITY CHANGE    DIIS ERROR
   1  0  0      -56.0170281350   -56.0170281350   0.206756922   0.776122072
          * * *   INITIATING DIIS PROCEDURE   * * *
   2  1  0      -56.1627166817    -0.1456885467   0.111178514   0.120596351
   3  2  0      -56.1725906538    -0.0098739721   0.021920617   0.024019889
   4  3  0      -56.1738075145    -0.0012168608   0.018651494   0.020218099
   5  4  0      -56.1739794556    -0.0001719411   0.002028269   0.002071777
   6  5  0      -56.1739850079    -0.0000055523   0.000567309   0.000445278
   7  6  0      -56.1739852435    -0.0000002356   0.000015294   0.000009451
   8  7  0      -56.1739852437    -0.0000000002   0.000001265   0.000000863
   9  8  0      -56.1739852437    -0.0000000000   0.000000033   0.000000046

          -----------------
          DENSITY CONVERGED
          -----------------
     TIME TO FORM FOCK OPERATORS=       0.0 SECONDS (       0.0 SEC/ITER)
     TIME TO SOLVE SCF EQUATIONS=       0.0 SECONDS (       0.0 SEC/ITER)

 FINAL RHF ENERGY IS      -56.1739852437 AFTER   9 ITERATIONS

          ------------
          EIGENVECTORS
          ------------

                      1          2          3          4          5
                  -15.5147    -1.1187    -0.6457    -0.6457    -0.3793
                     A1'        A1'        E'         E'         A2" 
    1  N  1  S    0.994820  -0.201220  -0.000000  -0.000000   0.000000
    2  N  1  S    0.025112   0.416578  -0.000000  -0.000000   0.000000
    3  N  1  X   -0.000000   0.000000   0.472234  -0.000000   0.000000
    4  N  1  Y   -0.000000   0.000000  -0.000000   0.472234   0.000000
    5  N  1  Z   -0.000000   0.000000  -0.000000  -0.000000   0.591280
    6  N  1  S   -0.000590   0.429774  -0.000000  -0.000000   0.000000
    7  N  1  X   -0.000000   0.000000   0.280134  -0.000000   0.000000
    8  N  1  Y   -0.000000   0.000000  -0.000000   0.280134   0.000000
    9  N  1  Z   -0.000000   0.000000  -0.000000  -0.000000   0.555892
   10  N  1 XX   -0.003743   0.022463   0.024923  -0.000000   0.000000
   11  N  1 YY   -0.003743   0.022463  -0.024923  -0.000000   0.000000
   12  N  1 ZZ   -0.003604  -0.012242  -0.000000  -0.000000   0.000000
   13  N  1 XY   -0.000000   0.000000  -0.000000  -0.028778   0.000000
   14  N  1 XZ   -0.000000   0.000000  -0.000000  -0.000000   0.000000
   15  N  1 YZ   -0.000000   0.000000  -0.000000  -0.000000   0.000000
   16  H  2  S    0.000212   0.135347  -0.140625   0.243569   0.000000
   17  H  2  S    0.000304   0.013376  -0.066929   0.115924   0.000000
   18  H  3  S    0.000212   0.135347  -0.140625  -0.243569   0.000000
   19  H  3  S    0.000304   0.013376  -0.066929  -0.115924   0.000000
   20  H  4  S    0.000212   0.135347   0.281249  -0.000000   0.000000
   21  H  4  S    0.000304   0.013376   0.133858  -0.000000   0.000000

                      6          7          8          9         10
                    0.2318     0.3319     0.3319     0.9387     0.9387
                     A1'        E'         E'         E'         E'  
    1  N  1  S   -0.135952   0.000000  -0.000000   0.000000   0.000000
    2  N  1  S    0.131646   0.000000  -0.000000   0.000000   0.000000
    3  N  1  X    0.000000  -0.309048  -0.000000  -0.416395   0.000000
    4  N  1  Y    0.000000   0.000000   0.309048   0.000000  -0.416395
    5  N  1  Z    0.000000   0.000000  -0.000000   0.000000   0.000000
    6  N  1  S    2.056953   0.000000  -0.000000   0.000000   0.000000
    7  N  1  X    0.000000  -1.229842  -0.000000   1.495027   0.000000
    8  N  1  Y    0.000000   0.000000   1.229842   0.000000   1.495027
    9  N  1  Z    0.000000   0.000000  -0.000000   0.000000   0.000000
   10  N  1 XX   -0.034980  -0.000505  -0.000000  -0.156398   0.000000
   11  N  1 YY   -0.034980   0.000505  -0.000000   0.156398   0.000000
   12  N  1 ZZ   -0.048800   0.000000  -0.000000   0.000000   0.000000
   13  N  1 XY    0.000000   0.000000  -0.000583   0.000000   0.180592
   14  N  1 XZ    0.000000   0.000000  -0.000000   0.000000   0.000000
   15  N  1 YZ    0.000000   0.000000  -0.000000   0.000000   0.000000
   16  H  2  S   -0.041432  -0.013307  -0.023049   0.375795  -0.650896
   17  H  2  S   -0.985161  -0.937987  -1.624640   0.129208  -0.223795
   18  H  3  S   -0.041432  -0.013307   0.023049   0.375795   0.650896
   19  H  3  S   -0.985161  -0.937987   1.624640   0.129208   0.223795
   20  H  4  S   -0.041432   0.026614  -0.000000  -0.751590   0.000000
   21  H  4  S   -0.985161   1.875973  -0.000000  -0.258416   0.000000

                     11         12         13         14         15
                    0.9744     1.0589     1.2658     1.2658     1.3277
                     A2"        A1'        E'         E'         A1' 
    1  N  1  S   -0.000000  -0.092130  -0.000000   0.000000  -0.041992
    2  N  1  S   -0.000000  -0.111390  -0.000000   0.000000  -1.684434
    3  N  1  X   -0.000000  -0.000000   1.026826   0.000000  -0.000000
    4  N  1  Y   -0.000000  -0.000000  -0.000000  -1.026826  -0.000000
    5  N  1  Z   -1.009767  -0.000000  -0.000000   0.000000  -0.000000
    6  N  1  S   -0.000000   0.977428  -0.000000   0.000000   4.023384
    7  N  1  X   -0.000000  -0.000000  -1.292383   0.000000  -0.000000
    8  N  1  Y   -0.000000  -0.000000  -0.000000   1.292383  -0.000000
    9  N  1  Z    1.029672  -0.000000  -0.000000   0.000000  -0.000000
   10  N  1 XX   -0.000000  -0.169635  -0.154193   0.000000  -0.336570
   11  N  1 YY   -0.000000  -0.169635   0.154193   0.000000  -0.336570
   12  N  1 ZZ   -0.000000   0.143739  -0.000000   0.000000  -0.285215
   13  N  1 XY   -0.000000  -0.000000  -0.000000  -0.178047  -0.000000
   14  N  1 XZ   -0.000000  -0.000000  -0.000000   0.000000  -0.000000
   15  N  1 YZ   -0.000000  -0.000000  -0.000000   0.000000  -0.000000
   16  H  2  S   -0.000000  -0.707365   0.294034   0.509282   0.121173
   17  H  2  S   -0.000000   0.156517  -0.669057  -1.158840  -0.948180
   18  H  3  S   -0.000000  -0.707365   0.294034  -0.509282   0.121173
   19  H  3  S   -0.000000   0.156517  -0.669057   1.158840  -0.948180
   20  H  4  S   -0.000000  -0.707365  -0.588068   0.000000   0.121173
   21  H  4  S   -0.000000   0.156517   1.338113   0.000000  -0.948180

                     16         17         18         19         20
                    1.9933     1.9933     2.5142     2.7085     2.7085
                     E''        E''        A1'        E'         E'  
    1  N  1  S    0.000000  -0.000000  -0.060483  -0.000000   0.000000
    2  N  1  S    0.000000  -0.000000  -0.288707  -0.000000   0.000000
    3  N  1  X    0.000000  -0.000000   0.000000   0.120370   0.000000
    4  N  1  Y    0.000000  -0.000000   0.000000  -0.000000  -0.120370
    5  N  1  Z    0.000000  -0.000000   0.000000  -0.000000   0.000000
    6  N  1  S    0.000000  -0.000000   1.307337  -0.000000   0.000000
    7  N  1  X    0.000000  -0.000000   0.000000   0.870399   0.000000
    8  N  1  Y    0.000000  -0.000000   0.000000  -0.000000  -0.870399
    9  N  1  Z    0.000000  -0.000000   0.000000  -0.000000   0.000000
   10  N  1 XX    0.000000  -0.000000   0.497551   1.033608   0.000000
   11  N  1 YY    0.000000  -0.000000   0.497551  -1.033608   0.000000
   12  N  1 ZZ    0.000000  -0.000000  -1.169810  -0.000000   0.000000
   13  N  1 XY    0.000000  -0.000000   0.000000  -0.000000   1.193508
   14  N  1 XZ    0.000000   1.000000   0.000000  -0.000000   0.000000
   15  N  1 YZ    1.000000  -0.000000   0.000000  -0.000000   0.000000
   16  H  2  S    0.000000  -0.000000  -0.552075   0.494558   0.856600
   17  H  2  S    0.000000  -0.000000  -0.111479   0.055120   0.095471
   18  H  3  S    0.000000  -0.000000  -0.552075   0.494558  -0.856600
   19  H  3  S    0.000000  -0.000000  -0.111479   0.055120  -0.095471
   20  H  4  S    0.000000  -0.000000  -0.552075  -0.989117   0.000000
   21  H  4  S    0.000000  -0.000000  -0.111479  -0.110240   0.000000

                     21
                    4.1309
                     A1' 
    1  N  1  S   -0.462677
    2  N  1  S    1.215229
    3  N  1  X   -0.000000
    4  N  1  Y   -0.000000
    5  N  1  Z   -0.000000
    6  N  1  S    3.097886
    7  N  1  X   -0.000000
    8  N  1  Y   -0.000000
    9  N  1  Z   -0.000000
   10  N  1 XX   -1.539816
   11  N  1 YY   -1.539816
   12  N  1 ZZ   -1.472072
   13  N  1 XY   -0.000000
   14  N  1 XZ   -0.000000
   15  N  1 YZ   -0.000000
   16  H  2  S    0.213629
   17  H  2  S   -0.566397
   18  H  3  S    0.213629
   19  H  3  S   -0.566397
   20  H  4  S    0.213629
   21  H  4  S   -0.566397
 ...... END OF RHF CALCULATION ......
 STEP CPU TIME =     0.00 TOTAL CPU TIME =          0.0 (      0.0 MIN)
 TOTAL WALL CLOCK TIME=          0.0 SECONDS, CPU UTILIZATION IS    99.89%

     ----------------------------------------------------------------
     PROPERTY VALUES FOR THE RHF   SELF-CONSISTENT FIELD WAVEFUNCTION
     ----------------------------------------------------------------

          -----------------
          ENERGY COMPONENTS
          -----------------

         WAVEFUNCTION NORMALIZATION =       1.0000000000

                ONE ELECTRON ENERGY =    -100.0786647484
                TWO ELECTRON ENERGY =      31.7352638803
           NUCLEAR REPULSION ENERGY =      12.1694156244
                                      ------------------
                       TOTAL ENERGY =     -56.1739852437

 ELECTRON-ELECTRON POTENTIAL ENERGY =      31.7352638803
  NUCLEUS-ELECTRON POTENTIAL ENERGY =    -156.1559407606
   NUCLEUS-NUCLEUS POTENTIAL ENERGY =      12.1694156244
                                      ------------------
             TOTAL POTENTIAL ENERGY =    -112.2512612559
               TOTAL KINETIC ENERGY =      56.0772760122
                 VIRIAL RATIO (V/T) =       2.0017245708

  ...... PI ENERGY ANALYSIS ......

 ENERGY ANALYSIS:
            FOCK ENERGY=    -36.6081371336
          BARE H ENERGY=   -100.0786647484
     ELECTRONIC ENERGY =    -68.3434009410
         KINETIC ENERGY=     56.0772760122
          N-N REPULSION=     12.1694156244
           TOTAL ENERGY=    -56.1739853166
        SIGMA PART(1+2)=    -62.0856350512
               (K,V1,2)=     52.9784242282   -141.3001420984     26.2360828190
           PI PART(1+2)=     -6.2577658898
               (K,V1,2)=      3.0988517840    -14.8557986622      5.4991809884
  SIGMA SKELETON, ERROR=    -49.9162194268     -0.0000000000
             MIXED PART= 0.00000E+00 0.00000E+00 0.00000E+00 0.00000E+00
 ...... END OF PI ENERGY ANALYSIS ......

          ---------------------------------------
          MULLIKEN AND LOWDIN POPULATION ANALYSES
          ---------------------------------------

     ATOMIC MULLIKEN POPULATION IN EACH MOLECULAR ORBITAL

                      1          2          3          4          5

                  2.000000   2.000000   2.000000   2.000000   2.000000

    1             1.999785   1.576650   1.253091   1.253091   2.000000
    2             0.000072   0.141117   0.124485   0.373454   0.000000
    3             0.000072   0.141117   0.124485   0.373454   0.000000
    4             0.000072   0.141117   0.497939   0.000000   0.000000

               ----- POPULATIONS IN EACH AO -----
                             MULLIKEN      LOWDIN
              1  N  1  S      1.99505     1.97849
              2  N  1  S      0.72561     0.48320
              3  N  1  X      0.75700     0.69541
              4  N  1  Y      0.75700     0.69592
              5  N  1  Z      1.04060     1.03469
              6  N  1  S      0.80720     0.38763
              7  N  1  X      0.48572     0.54518
              8  N  1  Y      0.48572     0.54653
              9  N  1  Z      0.95940     0.96531
             10  N  1 XX      0.03733     0.19896
             11  N  1 YY      0.03733     0.19896
             12  N  1 ZZ     -0.01571     0.12387
             13  N  1 XY      0.01036     0.01621
             14  N  1 XZ      0.00000     0.00000
             15  N  1 YZ      0.00000     0.00000
             16  H  2  S      0.49932     0.45132
             17  H  2  S      0.13981     0.25783
             18  H  3  S      0.49932     0.45132
             19  H  3  S      0.13981     0.25783
             20  H  4  S      0.49932     0.45340
             21  H  4  S      0.13981     0.25794

          ----- MULLIKEN ATOMIC OVERLAP POPULATIONS -----
          (OFF-DIAGONAL ELEMENTS NEED TO BE MULTIPLIED BY 2)

             1           2           3           4

    1    7.0504868
    2    0.3440436   0.3349328
    3    0.3440436  -0.0199245   0.3349328
    4    0.3440436  -0.0199245  -0.0199245   0.3349328

          TOTAL MULLIKEN AND LOWDIN ATOMIC POPULATIONS
       ATOM         MULL.POP.    CHARGE          LOW.POP.     CHARGE
    1 NITROGEN      8.082618   -1.082618         7.870363   -0.870363
    2 HYDROGEN      0.639127    0.360873         0.709146    0.290854
    3 HYDROGEN      0.639127    0.360873         0.709146    0.290854
    4 HYDROGEN      0.639127    0.360873         0.711345    0.288655

          -------------------------------
          BOND ORDER AND VALENCE ANALYSIS     BOND ORDER THRESHOLD=0.050
          -------------------------------

                   BOND                       BOND                       BOND
  ATOM PAIR DIST  ORDER      ATOM PAIR DIST  ORDER      ATOM PAIR DIST  ORDER
    1   2  0.988  0.847        1   3  0.988  0.847        1   4  0.988  0.847

                       TOTAL       BONDED        FREE
      ATOM            VALENCE     VALENCE     VALENCE
    1 NITROGEN          2.540       2.540      -0.000
    2 HYDROGEN          0.844       0.844      -0.000
    3 HYDROGEN          0.844       0.844      -0.000
    4 HYDROGEN          0.844       0.844      -0.000

          ---------------------
          ELECTROSTATIC MOMENTS
          ---------------------

 POINT   1           X           Y           Z (BOHR)    CHARGE
                -0.000000    0.000000    0.000000       -0.00 (A.U.)
         DX          DY          DZ         /D/  (DEBYE)
    -0.000000    0.000000    0.000000    0.000000
 ...... END OF PROPERTY EVALUATION ......
 STEP CPU TIME =     0.00 TOTAL CPU TIME =          0.0 (      0.0 MIN)
 TOTAL WALL CLOCK TIME=          0.0 SECONDS, CPU UTILIZATION IS    99.90%

 REGENERATING AO INTEGRAL LIST IN C1 POINT GROUP FOR AO-DRIVEN CPHF

          --------------------
          2 ELECTRON INTEGRALS
          --------------------

 THE -PK- OPTION IS OFF, THE INTEGRALS ARE NOT IN SUPERMATRIX FORM.
 STORING   15000 INTEGRALS/RECORD ON DISK, USING 12 BYTES/INTEGRAL.
 TWO ELECTRON INTEGRAL EVALUATION REQUIRES   90451 WORDS OF MEMORY.
 II,JST,KST,LST =  1  1  1  1 NREC =         1 INTLOC =    1
 II,JST,KST,LST =  2  1  1  1 NREC =         1 INTLOC =    2
 II,JST,KST,LST =  3  1  1  1 NREC =         1 INTLOC =   34
 II,JST,KST,LST =  4  1  1  1 NREC =         1 INTLOC =  214
 II,JST,KST,LST =  5  1  1  1 NREC =         1 INTLOC = 1189
 II,JST,KST,LST =  6  1  1  1 NREC =         1 INTLOC = 2365
 II,JST,KST,LST =  7  1  1  1 NREC =         1 INTLOC = 3802
 II,JST,KST,LST =  8  1  1  1 NREC =         1 INTLOC = 5512
 II,JST,KST,LST =  9  1  1  1 NREC =         1 INTLOC = 7564
 II,JST,KST,LST = 10  1  1  1 NREC =         1 INTLOC = 9526
 TOTAL NUMBER OF NONZERO TWO-ELECTRON INTEGRALS =               11829
          1 INTEGRAL RECORDS WERE STORED ON DISK FILE  8.
  ...... END OF TWO-ELECTRON INTEGRALS .....
 STEP CPU TIME =     0.00 TOTAL CPU TIME =          0.0 (      0.0 MIN)
 TOTAL WALL CLOCK TIME=          0.0 SECONDS, CPU UTILIZATION IS    99.91%

     ---------------------------------------------
     1ST AND 2ND INTEGRAL DERIVATIVE CONTRIBUTIONS
     ---------------------------------------------
 ...... END OF 1-ELECTRON GRAD+HESS+FOCKDER ......
 STEP CPU TIME =     0.00 TOTAL CPU TIME =          0.0 (      0.0 MIN)
 TOTAL WALL CLOCK TIME=          0.0 SECONDS, CPU UTILIZATION IS    99.92%

     ----------------------------------------------
     TWO ELECTRON INTEGRAL DERIVATIVE CONTRIBUTIONS
     ----------------------------------------------

      12182 WORDS REQUIRED,    999999 WORDS AVAILABLE
 THE COARSE/FINE SCHWARZ SCREENINGS SKIPPED          0/         0 BLOCKS.
 THE NUMBER OF DERIVATIVE INTEGRAL BLOCKS COMPUTED WAS       360
 STEP CPU TIME =     0.02 TOTAL CPU TIME =          0.0 (      0.0 MIN)
 TOTAL WALL CLOCK TIME=          0.0 SECONDS, CPU UTILIZATION IS    99.94%
 ...... END OF 2-ELECTRON GRAD+HESS+FOCKDER ......
 STEP CPU TIME =     0.00 TOTAL CPU TIME =          0.0 (      0.0 MIN)
 TOTAL WALL CLOCK TIME=          0.0 SECONDS, CPU UTILIZATION IS    99.94%

     -------------------------------------------
     COUPLED-PERTURBED CLOSED SHELL HARTREE-FOCK
     -------------------------------------------
 THE CPHF HAS      80 INDEPENDENT ORBITAL ROTATIONS.
 SOLVING FOR    6 NUCLEAR RESPONSES AND 0 ELECTRIC FIELD RESPONSES
           -FA- WILL USE      2388 WORDS,
           -TA- WILL USE      7269 WORDS,
          -FCK- WILL USE     38614 WORDS,
 -WXY- AND -YA- WILL USE     37788 WORDS,
               THERE ARE    999999 WORDS OF REPLICATED MEMORY AVAILABLE.
        TIME FOR -FA-   =        0.000
        TIME FOR -TA-   =        0.000
        TIME FOR -FCK-  =        0.001
 PRECONDITIONED CONJUGATE GRADIENT SOLVER     CONV. TOLERANCE=5.00E-05
 ITER    RESPONSE ERROR        IMPROVED
   1       3.46651E-01             6
   2       1.11977E-01             6
   3       2.01217E-02             6
   4       2.75380E-03             6
   5       3.66051E-04             6
   6       4.79887E-05             6
 THE CPHF HAS CONVERGED AFTER  6 ITERATIONS.
 IT REQUIRED    36 FOCK-LIKE BUILDS TO FIND THE   6 SYMMETRY UNIQUE RESPONSES.
        TIME FOR -YA-   =        0.002
 ...... DONE WITH CPHF CONTRIBUTIONS ......
 STEP CPU TIME =     0.00 TOTAL CPU TIME =          0.0 (      0.0 MIN)
 TOTAL WALL CLOCK TIME=          0.0 SECONDS, CPU UTILIZATION IS    99.93%

          ---------------
          ENERGY GRADIENT
          ---------------

 UNITS ARE HARTREE/BOHR    E'X               E'Y               E'Z 
    1 NITROGEN         0.000000000       0.000000000       0.000000000
    2 HYDROGEN        -0.000028855       0.000049978       0.000000000
    3 HYDROGEN        -0.000028855      -0.000049978       0.000000000
    4 HYDROGEN         0.000057710      -0.000000000       0.000000000

          -------------------------------
          CARTESIAN FORCE CONSTANT MATRIX
          -------------------------------

                                   1                          2
                               NITROGEN                   HYDROGEN  
                          X        Y        Z        X        Y        Z
  1   NITROGEN     X 0.956216-0.000000 0.000000-0.203253 0.200026 0.000000
                   Y-0.000000 0.956216 0.000000 0.200026-0.434223 0.000000
                   Z 0.000000 0.000000-0.089206 0.000000 0.000000 0.029735
  2   HYDROGEN     X-0.203253 0.200026 0.000000 0.193445-0.214301 0.000000
                   Y 0.200026-0.434223 0.000000-0.214301 0.440898 0.000000
                   Z 0.000000 0.000000 0.029735 0.000000 0.000000-0.009891
  3   HYDROGEN     X-0.203253-0.200026 0.000000 0.017266 0.020750 0.000000
                   Y-0.200026-0.434223 0.000000-0.020750-0.015700 0.000000
                   Z 0.000000 0.000000 0.029735 0.000000 0.000000-0.009922
  4   HYDROGEN     X-0.549708 0.000000 0.000000-0.007459-0.006475 0.000000
                   Y 0.000000-0.087768 0.000000 0.035024 0.009024 0.000000
                   Z 0.000000 0.000000 0.029735 0.000000 0.000000-0.009922

                                   3                          4
                               HYDROGEN                   HYDROGEN  
                          X        Y        Z        X        Y        Z
  3   HYDROGEN     X 0.193445 0.214301 0.000000-0.007459-0.035024 0.000000
                   Y 0.214301 0.440898 0.000000 0.006475 0.009024 0.000000
                   Z 0.000000 0.000000-0.009891 0.000000 0.000000-0.009922
  4   HYDROGEN     X-0.007459 0.006475 0.000000 0.564625 0.000000 0.000000
                   Y-0.035024 0.009024 0.000000 0.000000 0.069719 0.000000
                   Z 0.000000 0.000000-0.009922 0.000000 0.000000-0.009891

          ------------------------          ----------------
          DIPOLE DERIVATIVE TENSOR          (DEBYE/ANGSTROM)
          ------------------------          ----------------

        ATOM                 MU-X           MU-Y           MU-Z
     NITROGEN   D/DX    -2.279720080    0.000000000    0.000000000
                D/DY     0.000000000   -2.279720080    0.000000000
                D/DZ     0.000000000    0.000000000   -6.089796961
     HYDROGEN   D/DX     0.761650783    0.003034407    0.000000000
                D/DY     0.003034407    0.758146951    0.000000000
                D/DZ     0.000000000    0.000000000    2.029931166
     HYDROGEN   D/DX     0.761650783   -0.003034407    0.000000000
                D/DY    -0.003034407    0.758146951    0.000000000
                D/DZ     0.000000000    0.000000000    2.029931166
     HYDROGEN   D/DX     0.756395035    0.000000000    0.000000000
                D/DY     0.000000000    0.763402699    0.000000000
                D/DZ     0.000000000    0.000000000    2.029931166

          --------------------------------------------------------
          NORMAL COORDINATE ANALYSIS IN THE HARMONIC APPROXIMATION
          --------------------------------------------------------

          ATOMIC WEIGHTS (AMU)

    1     NITROGEN         14.00307
    2     HYDROGEN          1.00782
    3     HYDROGEN          1.00782
    4     HYDROGEN          1.00782

 * * * WARNING, MODE 1 HAS BEEN CHOSEN AS A VIBRATION
          WHILE MODE 7 IS ASSUMED TO BE A TRANSLATION/ROTATION.
 PLEASE VERIFY THE PROGRAM'S DECISION MANUALLY!


 MODE(S)     1 TO     1 TREATED AS IMAGINARY.

 MODES    2 TO    7 ARE TAKEN AS ROTATIONS AND TRANSLATIONS.

 ANALYZING SYMMETRY OF NORMAL MODES...
 WATCH OUT!! THE COUNTING OF DEGENERATE MODES COUNTS INDIVIDUAL MODES,
 E.G. 2*E MEANS ONE (1) SET OF DEGENERATE E MODES

 --- SYMMETRY FOR NORMAL MODES ---
 INCLUDING TRANSLATION AND ROTATION
    1*A1'    0*A1"    1*A2'    2*A2"    2*E''    6*E'  
 EXCLUDING TRANSLATION AND ROTATION (SAYVETZ < 0.01)
    1*A1'    0*A1"    0*A2'    1*A2"    0*E''    4*E'  

     FREQUENCIES IN CM**-1, IR INTENSITIES IN DEBYE**2/AMU-ANGSTROM**2,
     REDUCED MASSES IN AMU.

                            1           2           3           4           5
       FREQUENCY:       973.64 I      0.00        0.00        0.00       28.35  
        SYMMETRY:         A2"         E'          E'          A2"         E'' 
    REDUCED MASS:      1.20668     4.25662     4.25662     4.25660     1.00782
    IR INTENSITY:     14.91427     0.00000     0.00000     0.00000     0.00000

  1   NITROGEN     X  0.00000000  0.23837643  0.04368581  0.00000797 -0.00000000
                   Y -0.00000000 -0.04368581  0.23837643  0.00000172  0.00000000
                   Z -0.11261110 -0.00000753 -0.00000313  0.24234614 -0.00000000
  2   HYDROGEN     X  0.00000000  0.23837706  0.04368610  0.00000797 -0.00000000
                   Y  0.00000000 -0.04368573  0.23837693  0.00000172 -0.00000000
                   Z  0.52154831 -0.00000753 -0.00000313  0.24234812 -0.20294343
  3   HYDROGEN     X -0.00000000  0.23837713  0.04368577  0.00000797  0.00000000
                   Y  0.00000000 -0.04368607  0.23837687  0.00000172 -0.00000000
                   Z  0.52154831 -0.00000753 -0.00000313  0.24234812 -0.58060478
  4   HYDROGEN     X  0.00000000  0.23837681  0.04368588  0.00000797 -0.00000000
                   Y -0.00000000 -0.04368595  0.23837719  0.00000172  0.00000000
                   Z  0.52154831 -0.00000753 -0.00000313  0.24234812  0.78354821

 TRANS. SAYVETZ    X  0.00000000  4.05872869  0.74381879  0.00013564 -0.00000000
                   Y  0.00000000 -0.74381879  4.05872869  0.00002927  0.00000000
                   Z -0.00001287 -0.00012815 -0.00005324  4.12632342 -0.00000000
               TOTAL  0.00001287  4.12632342  4.12632342  4.12632342  0.00000000

   ROT. SAYVETZ    X  0.00000000  0.00000000 -0.00000000  0.00000000  0.61572558
                   Y  0.00000000 -0.00000000 -0.00000000 -0.00000000 -2.21264126
                   Z -0.00000000  0.00000000 -0.00000000 -0.00000000  0.00000000
               TOTAL  0.00000000  0.00000000  0.00000000  0.00000000  2.29671490

                            6           7           8           9          10
       FREQUENCY:        28.35       28.40     1733.78     1733.78     3834.80  
        SYMMETRY:         E''         A2'         E'          E'          A1' 
    REDUCED MASS:      1.00783     1.00783     1.09156     1.09156     1.00782
    IR INTENSITY:      0.00000     0.00000     0.98165     0.98165     0.00000

  1   NITROGEN     X -0.00000000 -0.00000000  0.01276809 -0.07576324  0.00000000
                   Y  0.00000000  0.00000000 -0.07576324 -0.01276809 -0.00000000
                   Z  0.00000000  0.00000000  0.00000000 -0.00000000  0.00000000
  2   HYDROGEN     X -0.00000000 -0.49805516  0.26499133  0.61870841 -0.28755228
                   Y -0.00000000 -0.28755228  0.08307643  0.38326044  0.49805516
                   Z  0.78759410 -0.00000000  0.00000000 -0.00000000 -0.00000000
  3   HYDROGEN     X  0.00000000  0.49805516 -0.45313295  0.49768567 -0.28755228
                   Y -0.00000000 -0.28755228  0.20409916 -0.33486384 -0.49805516
                   Z -0.56955122  0.00000000 -0.00000000  0.00000000  0.00000000
  4   HYDROGEN     X -0.00000000 -0.00000000  0.01073795 -0.06371683  0.57510456
                   Y  0.00000000  0.57510456  0.76550166  0.12900706  0.00000000
                   Z -0.21804288 -0.00000000  0.00000000  0.00000000 -0.00000000

 TRANS. SAYVETZ    X -0.00000000 -0.00000000  0.00000060 -0.00000356 -0.00000000
                   Y  0.00000000  0.00000000 -0.00000356 -0.00000060  0.00000000
                   Z  0.00000000  0.00000000  0.00000000 -0.00000000  0.00000000
               TOTAL  0.00000000  0.00000000  0.00000361  0.00000361  0.00000000

   ROT. SAYVETZ    X  2.21264126 -0.00000000  0.00000000 -0.00000000 -0.00000000
                   Y  0.61572558  0.00000000  0.00000000 -0.00000000  0.00000000
                   Z  0.00000000  3.24804536  0.00000000 -0.00000000 -0.00000000
               TOTAL  2.29671490  3.24804536  0.00000000  0.00000000  0.00000000

                           11          12
       FREQUENCY:      4048.88     4048.88  
        SYMMETRY:         E'          E'  
    REDUCED MASS:      1.10517     1.10517
    IR INTENSITY:      1.10842     1.10842

  1   NITROGEN     X  0.03065353 -0.07640948
                   Y -0.07640948 -0.03065353
                   Z -0.00000000  0.00000000
  2   HYDROGEN     X -0.38430149  0.04527995
                   Y  0.66249213 -0.10036144
                   Z -0.00000000 -0.00000000
  3   HYDROGEN     X  0.24645643  0.29832388
                   Y  0.40944820  0.53039647
                   Z  0.00000000  0.00000000
  4   HYDROGEN     X -0.28806500  0.71805429
                   Y -0.01028221 -0.00412496
                   Z -0.00000000 -0.00000000

 TRANS. SAYVETZ    X  0.00000068 -0.00000168
                   Y -0.00000168 -0.00000068
                   Z -0.00000000  0.00000000
               TOTAL  0.00000181  0.00000181

   ROT. SAYVETZ    X -0.00000000 -0.00000000
                   Y -0.00000000  0.00000000
                   Z -0.00000000  0.00000000
               TOTAL  0.00000000  0.00000000

 REFERENCE ON SAYVETZ CONDITIONS - A. SAYVETZ, J.CHEM.PHYS., 7, 383-389(1939).

 NOTE - THE MODES J,K ARE ORTHONORMALIZED ACCORDING TO
 SUM ON I   M(I) * (X(I,J)*X(I,K) + Y(I,J)*Y(I,K) + Z(I,J)*Z(I,K)) = DELTA(J,K)

  MODE FREQ(CM**-1)  SYMMETRY  RED. MASS  IR INTENS.
     1     973.638    A2"      1.206681   14.914274
     2       0.003    E'       4.256625    0.000000
     3       0.003    E'       4.256625    0.000000
     4       0.005    A2"      4.256596    0.000000
     5      28.352    E''      1.007825    0.000000
     6      28.352    E''      1.007825    0.000000
     7      28.403    A2'      1.007825    0.000000
     8    1733.781    E'       1.091561    0.981649
     9    1733.781    E'       1.091561    0.981649
    10    3834.798    A1'      1.007825    0.000000
    11    4048.878    E'       1.105171    1.108417
    12    4048.878    E'       1.105171    1.108417

     -------------------------------
     THERMOCHEMISTRY AT T=  298.15 K
     -------------------------------

 USING IDEAL GAS, RIGID ROTOR, HARMONIC NORMAL MODE APPROXIMATIONS.
 P=  1.01325E+05 PASCAL.
 ALL FREQUENCIES ARE SCALED BY   1.00000
 THE MOMENTS OF INERTIA ARE (IN AMU*BOHR**2)
              5.27490             5.27490            10.54980
 THE ROTATIONAL SYMMETRY NUMBER IS  6.0
 THE ROTATIONAL CONSTANTS ARE (IN GHZ)
    341.82420   341.82420   170.91210
   1 IMAGINARY FREQUENCY VIBRATION(S) IS(ARE) EXCLUDED
     FROM THE FOLLOWING THERMOCHEMICAL ANALYSIS.
      8 -     12 VIBRATIONAL MODES ARE USED IN THERMOCHEMISTRY.
 THE HARMONIC ZERO POINT ENERGY IS (SCALED BY   1.000)
        0.035084 HARTREE/MOLECULE     7700.057605 CM**-1/MOLECULE 
       22.015592 KCAL/MOL               92.113235 KJ/MOL

               Q               LN Q
 ELEC.     1.00000E+00       0.000000
 TRANS.    2.76149E+06      14.831281
 ROT.      3.23241E+01       3.475813
 VIB.      1.00047E+00       0.000465
 TOT.      8.93042E+07      18.307559

              E         H         G         CV        CP        S
           KJ/MOL    KJ/MOL    KJ/MOL   J/MOL-K   J/MOL-K   J/MOL-K
 ELEC.      0.000     0.000     0.000     0.000     0.000     0.000
 TRANS.     3.718     6.197   -36.766    12.472    20.786   144.099
 ROT.       3.718     3.718    -8.616    12.472    12.472    41.371
 VIB.      92.123    92.123    92.112     0.271     0.271     0.036
 TOTAL     99.560   102.039    46.730    25.214    33.528   185.507
 VIB. THERMAL CORRECTION E(T)-E(0) = H(T)-H(0) =         9.646 J/MOL

              E         H         G         CV        CP        S
         KCAL/MOL  KCAL/MOL  KCAL/MOL CAL/MOL-K CAL/MOL-K CAL/MOL-K
 ELEC.      0.000     0.000     0.000     0.000     0.000     0.000
 TRANS.     0.889     1.481    -8.787     2.981     4.968    34.441
 ROT.       0.889     0.889    -2.059     2.981     2.981     9.888
 VIB.      22.018    22.018    22.015     0.065     0.065     0.009
 TOTAL     23.795    24.388    11.169     6.026     8.013    44.337
 VIB. THERMAL CORRECTION E(T)-E(0) = H(T)-H(0) =         2.306 CAL/MOL
 ......END OF NORMAL COORDINATE ANALYSIS......
 STEP CPU TIME =     0.00 TOTAL CPU TIME =          0.1 (      0.0 MIN)
 TOTAL WALL CLOCK TIME=          0.1 SECONDS, CPU UTILIZATION IS    99.94%
               580000  WORDS OF DYNAMIC MEMORY USED
 EXECUTION OF GAMESS TERMINATED NORMALLY 17:17:10 23-JUN-2021    
 DDI: 263640 bytes (0.3 MB / 0 MWords) used by master data server.

 ----------------------------------------
 CPU timing information for all processes
 ========================================
 0: 0.52 + 0.00 = 0.52
 ----------------------------------------
 ddikick.x: exited gracefully.
unset echo
----- accounting info -----
Files used on the master node jackson-Z97X-UD3H-BK were:
-rw-rw-r-- 1 jackson jackson     357 Jun 23 17:17 /home/jackson/Source/GamessRuns/4c_hessian.F05
-rw-rw-r-- 1 jackson jackson  180016 Jun 23 17:17 /home/jackson/Source/GamessRuns/4c_hessian.F08
-rw-rw-r-- 1 jackson jackson 1865040 Jun 23 17:17 /home/jackson/Source/GamessRuns/4c_hessian.F10
-rw-rw-r-- 1 jackson jackson   22272 Jun 23 17:17 /home/jackson/Source/GamessRuns/4c_hessian.F18
ls: No match.
ls: No match.
ls: No match.
Wed 23 Jun 2021 05:17:13 PM CDT
0.1u 0.0s 0:03.29 6.9% 0+0k 0+16io 0pf+0w
