----- GAMESS execution script 'rungms' -----
This job is running on host jackson-Z97X-UD3H-BK
under operating system Linux at Wed 23 Jun 2021 11:30:21 AM CDT
Available scratch disk space (Kbyte units) at beginning of the job is
Filesystem     1K-blocks     Used Available Use% Mounted on
/dev/sda2      114337956 62176104  46310716  58% /
GAMESS temporary binary files will be written to /home/jackson/Source/GamessRuns
GAMESS supplementary output files will be written to /home/jackson/Source/gamess/GamessRunsOutput
Copying input file ./3a.inp to your run's scratch directory...
cp ./3a.inp /home/jackson/Source/GamessRuns/3a.F05
unset echo
/home/jackson/Source/gamess/ddikick.x /home/jackson/Source/gamess/gamess.01.x 3a -ddi 1 1 jackson-Z97X-UD3H-BK -scr /home/jackson/Source/GamessRuns

 Distributed Data Interface kickoff program.
 Initiating 1 compute processes on 1 nodes to run the following command:
 /home/jackson/Source/gamess/gamess.01.x 3a 

          *******************************************************
          *                                                     *
          *          GAMESS VERSION = 30 SEP 2020 (R2)          *
          *                                                     *
          *              doi.org/10.1063/5.0005188              *
          *                                                     *
          **************** 64 BIT LINUX VERSION *****************

  GAMESS HAS BEEN MADE POSSIBLE WITH IMPORTANT CONTRIBUTIONS FROM
  THE FOLLOWING INDIVIDUALS (IN ALPHABETICAL ORDER):

     IVANA ADAMOVIC, CHRISTINE AIKENS, TOMOKO AKAMA,
     YURI ALEXEEV, YURIKO AOKI, POOJA ARORA, TOSHIO ASADA,
     ANDREY ASADCHEV, KIM K. BALDRIDGE, PRADIPTA BANDYOPADHYAY,
     MARIA BARYSZ, ROB BELL, JONATHAN BENTZ, COLLEEN BERTONI,
     JERRY A. BOATZ, BRETT BODE, KURT BRORSEN, KURT R. BRORSEN,
     LAIMUTIS BYTAUTAS, CALEB CARLIN, LAURA CARRINGTON,
     GALINA CHABAN, BENOIT CHAMPAGNE, WEI CHEN, MAHITO CHIBA,
     DAN CHIPMAN, CHEOL HO CHOI, TANNER CULPITT,
     DIPAYAN DATTA, PAUL DAY, ALBERT DEFUSCO,
     NUWAN DESILVA, J. EMILIANO DEUSTUA,
     TIM DUDLEY, MICHEL DUPUIS, STEVEN T. ELBERT,
     DMITRI FEDOROV, ALEX FINDLATER, GRAHAM FLETCHER,
     MARK FREITAG, CHRISTIAN FRIEDL, DAVID GARMER,
     IGOR S. GERASIMOV, KURT GLAESEMANN, MARK S. GORDON,
     JEFFREY GOUR, FENG LONG GU, EMILIE B. GUIDEZ,
     ANASTASIA GUNINA, SHARON HAMMES-SCHIFFER, MASATAKE HARUTA,
     KIMIHIKO HIRAO, YASUHIRO IKABATA, TZVETELIN IORDANOV,
     STEPHAN IRLE, KAZUYA ISHIMURA, JOE IVANIC, FRANK JENSEN,
     JAN H. JENSEN, VISVALDAS KAIRYS, MUNEAKI KAMIYA,
     MICHIO KATOUDA, NAOAKI KAWAKAMI, DAN KEMP, BERNARD KIRTMAN,
     KAZUO KITAURA, MARIUSZ KLOBUKOWSKI, MASATO KOBAYASHI,
     PRAKASHAN KORAMBATH, JACEK KORCHOWIEC, SHIRO KOSEKI,
     KAROL KOWALSKI, JIMMY KROMANN, STANISLAW KUCHARSKI,
     HENRY KURTZ, SAROM SOK LEANG, HUI LI, SHUHUA LI, WEI LI,
     JESSE LUTZ, ALEKSANDR O. LYKHIN, MARCIN MAKOWSKI,
     JOANI MATO, NIKITA MATSUNAGA, BENEDETTA MENNUCCI,
     GRANT MERRILL, NORIYUKI MINEZAWA, VLADIMIR MIRONOV,
     EISAKU MIYOSHI, JOHN A. MONTGOMERY JR., HIROTOSHI MORI,
     JONATHAN MULLIN, MONIKA MUSIAL, SHIGERU NAGASE,
     TAKESHI NAGATA, HIROMI NAKAI, TAKAHITO NAKAJIMA,
     YUYA NAKAJIMA, HARUYUKI NAKANO, HIROYA NAKATA, SEAN NEDD,
     HEATHER NETZLOFF, KIET A. NGUYEN, YOSHIO NISHIMOTO,
     BOSILJKA NJEGIC, RYAN OLSON, MIKE PAK, ROBERTO PEVERATI,
     BUU PHAM, PIOTR PIECUCH, ANNA POMOGAEVA, DAVID POOLE,
     SPENCER PRUITT, OLIVIER QUINET, LUKE ROSKOP,
     KLAUS RUEDENBERG, ANDREW SAND, TOSAPORN SATTASATHUCHANA,
     NOZOMI SAWADA, MICHAEL W. SCHMIDT, PATRICK E. SCHNEIDER,
     JUNJI SEINO, PRACHI SHARMA, JUN SHEN, JIM SHOEMAKER,
     YINAN SHU, DEJUN SI, JONATHAN SKONE, LYUDMILA SLIPCHENKO,
     TONY SMITH, JIE SONG, MARK SPACKMAN, CASPER STEINMANN,
     WALT STEVENS, PEIFENG SU, SHUJUN SU, CHET SWALINA,
     TETSUYA TAKETSUGU, ZHEN TAO, NANDUN THELLAMUREGE
     SEIKEN TOKURA, JACOPO TOMASI, TSUGUKI TOUMA, TAKAO TSUNEDA,
     HIROAKI UMEDA, JORGE LUIS GALVEZ VALLEJO, YALI WANG,
     SIMON WEBB, AARON WEST, THERESA L. WINDUS, MARTA WLOCH,
     PENG XU, KIYOSHI YAGI, SUSUMU YANAGISAWA, YANG YANG,
     SOOHAENG YOO, TAKESHI YOSHIKAWA, FEDERICO ZAHARIEV,
     TOBY ZENG

  WHO ARE SUPPORTED BY THEIR INSTITUTION/UNIVERSITY/COMPANY/GROUP
  (IN ALPHABETICAL ORDER):

     EP ANALYTICS, FACULTES UNIVERSITAIRES NOTRE-DAME DE LA PAIX,
     INSTITUTE FOR MOLECULAR SCIENCE, IOWA STATE UNIVERSITY,
     JACKSON STATE UNIVERSITY, JOHANNES KEPLER UNIVERSITY LINZ,
     KYUSHU UNIVERSITY, MICHIGAN STATE UNIVERSITY,
     MIE UNIVERSITY, MOSCOW STATE UNIVERSITY,
     N. COPERNICUS UNIVERSITY, NAGOYA UNIVERSITY,
     NANJING UNIVERSITY, NAT. INST. OF ADVANCED INDUSTRIAL
     SCIENCE AND TECHNOLOGY, NATIONAL INST. OF STANDARDS AND
     TECHNOLOGY, NESMEYANOV INSTITUTE OF ORGANOELEMENT COMPOUNDS
     OF RUSSIAN ACADEMY OF SCIENCES, OSAKA PREFECTURE UNIVERSITY,
     PENNSYLVANIA STATE UNIVERSITY, TOKYO INSTITUTE OF TECHNOLOGY,
     UNIVERSITY OF AARHUS, UNIVERSITY OF ALBERTA,
     UNIVERSITY OF CALIFORNIA AT SANTA BARBARA,
     UNIVERSITY OF COPENHAGEN, UNIVERSITY OF IOWA,
     UNIVERSITY OF MEMPHIS, UNIVERSITY OF MINNESOTA,
     UNIVERSITY OF NEBRASKA, UNIVERSITY OF NEW ENGLAND,
     UNIVERSITY OF NOTRE DAME, UNIVERSITY OF PISA,
     UNIVERSITY OF SILESIA, UNIVERSITY OF TOKYO,
     UNIVERSITY OF ZURICH, WASEDA UNIVERSITY, YALE UNIVERSITY

  GAMESS SOFTWARE MANAGEMENT TEAM FOR THIS RELEASE:
     MARK S. GORDON (TEAM LEAD),
     BRETT BODE (SENIOR ADVISOR),
     GIUSEPPE BARCA,
     COLLEEN BERTONI,
     KRISTOPHER KEIPERT (ADVISOR),
     SAROM S. LEANG (DEVELOPMENT LEAD),
     BUU PHAM,
     JORGE LUIS GALVEZ VALLEJO (WEBSITE ADMINISTRATOR),
     PENG XU

 EXECUTION OF GAMESS BEGUN 11:30:21 23-JUN-2021    

            ECHO OF THE FIRST FEW INPUT CARDS -
 INPUT CARD>! Assignment 1 from Dr Gordon                                                   
 INPUT CARD>! Optimize NH3 geometry with HF, and STO-3G basis set                           
 INPUT CARD>! use C2v symmetry                                                              
 INPUT CARD>!                                                                               
 INPUT CARD> $CONTRL SCFTYP=RHF RUNTYP=OPTIMIZE $END                                        
 INPUT CARD> $BASIS  GBASIS=STO NGAUSS=3 $END                                               
 INPUT CARD> $DATA                                                                          
 INPUT CARD>STO-3G - NH3                                                                    
 INPUT CARD>Cnv      3                                                                      
 INPUT CARD>                                                                                
 INPUT CARD>N 7.0 .0000000000 .0000000000 -.1592817187                                      
 INPUT CARD>H 1.0 .7581807764 .0000000000 .4764258594                                       
 INPUT CARD> $END                                                                           
 INPUT CARD>                                                                                
 INPUT CARD>                                                                                
 INPUT CARD>                                                                                
    1000000 WORDS OF MEMORY AVAILABLE

     BASIS OPTIONS
     -------------
     GBASIS=STO          IGAUSS=       3      POLAR=NONE    
     NDFUNC=       0     NFFUNC=       0     DIFFSP=       F
     NPFUNC=       0      DIFFS=       F     BASNAM=        


     RUN TITLE
     ---------
 STO-3G - NH3                                                                    

 THE POINT GROUP OF THE MOLECULE IS CNV     
 THE ORDER OF THE PRINCIPAL AXIS IS     3

 ATOM      ATOMIC                      COORDINATES (BOHR)
           CHARGE         X                   Y                   Z
 N           7.0     0.0000000000        0.0000000000       -0.3009988032
 H           1.0    -0.7163769583        1.2408012891        0.9003143277
 H           1.0    -0.7163769583       -1.2408012891        0.9003143277
 H           1.0     1.4327539166        0.0000000000        0.9003143277

          INTERNUCLEAR DISTANCES (ANGS.)
          ------------------------------

                1 N          2 H          3 H          4 H     

   1 N       0.0000000    0.9894252 *  0.9894252 *  0.9894252 *
   2 H       0.9894252 *  0.0000000    1.3132076 *  1.3132076 *
   3 H       0.9894252 *  1.3132076 *  0.0000000    1.3132076 *
   4 H       0.9894252 *  1.3132076 *  1.3132076 *  0.0000000  

  * ... LESS THAN  3.000


     ATOMIC BASIS SET
     ----------------
 THE CONTRACTED PRIMITIVE FUNCTIONS HAVE BEEN UNNORMALIZED
 THE CONTRACTED BASIS FUNCTIONS ARE NOW NORMALIZED TO UNITY

  SHELL TYPE  PRIMITIVE        EXPONENT          CONTRACTION COEFFICIENT(S)

 N         

      1   S       1            99.1061690    0.154328967295
      1   S       2            18.0523124    0.535328142282
      1   S       3             4.8856602    0.444634542185

      2   L       4             3.7804559   -0.099967229187    0.155916274999
      2   L       5             0.8784966    0.399512826089    0.607683718598
      2   L       6             0.2857144    0.700115468880    0.391957393099

 H         

      5   S       7             3.4252509    0.154328967295
      5   S       8             0.6239137    0.535328142282
      5   S       9             0.1688554    0.444634542185

 TOTAL NUMBER OF BASIS SET SHELLS             =    5
 NUMBER OF CARTESIAN GAUSSIAN BASIS FUNCTIONS =    8
 NUMBER OF ELECTRONS                          =   10
 CHARGE OF MOLECULE                           =    0
 SPIN MULTIPLICITY                            =    1
 NUMBER OF OCCUPIED ORBITALS (ALPHA)          =    5
 NUMBER OF OCCUPIED ORBITALS (BETA )          =    5
 TOTAL NUMBER OF ATOMS                        =    4
 THE NUCLEAR REPULSION ENERGY IS       12.4403893239

     $CONTRL OPTIONS
     ---------------
 SCFTYP=RHF          RUNTYP=OPTIMIZE     EXETYP=RUN     
 MPLEVL=       0     CITYP =NONE         CCTYP =NONE         VBTYP =NONE    
 DFTTYP=NONE         TDDFT =NONE    
 MULT  =       1     ICHARG=       0     NZVAR =       0     COORD =UNIQUE  
 PP    =NONE         RELWFN=NONE         LOCAL =NONE         NUMGRD=       F
 ISPHER=      -1     NOSYM =       0     MAXIT =      30     UNITS =ANGS    
 PLTORB=       F     MOLPLT=       F     AIMPAC=       F     FRIEND=        
 NPRINT=       7     IREST =       0     GEOM  =INPUT   
 NORMF =       0     NORMP =       0     ITOL  =      20     ICUT  =       9
 INTTYP=BEST         GRDTYP=BEST         QMTTOL= 1.0E-06

     $SYSTEM OPTIONS
     ---------------
  REPLICATED MEMORY=     1000000 WORDS (ON EVERY NODE).
 DISTRIBUTED MEMDDI=           0 MILLION WORDS IN AGGREGATE,
 MEMDDI DISTRIBUTED OVER   1 PROCESSORS IS           0 WORDS/PROCESSOR.
 TOTAL MEMORY REQUESTED ON EACH PROCESSOR=     1000000 WORDS.
 TIMLIM=      525600.00 MINUTES, OR     365.0 DAYS.
 PARALL= F  BALTYP=  DLB     KDIAG=    0  COREFL= F
 MXSEQ2=     300 MXSEQ3=     150  mem10=         0  mem22=         0

 Using Gaussians for PCM contribution to MEP, params: 0.10000E+01 0.10000E-07

          ----------------
          PROPERTIES INPUT
          ----------------

     MOMENTS            FIELD           POTENTIAL          DENSITY
 IEMOM =       1   IEFLD =       0   IEPOT =       0   IEDEN =       0
 WHERE =COMASS     WHERE =NUCLEI     WHERE =NUCLEI     WHERE =NUCLEI  
 OUTPUT=BOTH       OUTPUT=BOTH       OUTPUT=BOTH       OUTPUT=BOTH    
 IEMINT=       0   IEFINT=       0                     IEDINT=       0
                                                       MORB  =       0
          EXTRAPOLATION IN EFFECT
 ORBITAL PRINTING OPTION: NPREO=     1     8     2     1

     -------------------------------
     INTEGRAL TRANSFORMATION OPTIONS
     -------------------------------
     NWORD  =            0
     CUTOFF = 1.0E-09     MPTRAN =       0
     DIRTRF =       F     AOINTS =DUP     

          ----------------------
          INTEGRAL INPUT OPTIONS
          ----------------------
 NOPK  =       1 NORDER=       0 SCHWRZ=       F

     ------------------------------------------
     THE POINT GROUP IS CNV, NAXIS= 3, ORDER= 6
     ------------------------------------------

     DIMENSIONS OF THE SYMMETRY SUBSPACES ARE
 A1  =    4     A2  =    0     E   =    2

 ..... DONE SETTING UP THE RUN .....
 STEP CPU TIME =     0.00 TOTAL CPU TIME =          0.0 (      0.0 MIN)
 TOTAL WALL CLOCK TIME=          0.0 SECONDS, CPU UTILIZATION IS    97.38%


          -----------------------------
          STATIONARY POINT LOCATION RUN
          -----------------------------

 OBTAINING INITIAL HESSIAN, HESS=GUESS   
 CARTESIAN COORDINATE OPTIMIZATION USING BADGER'S RULE FORCE CONSTANT GUESS

          PARAMETERS CONTROLLING GEOMETRY SEARCH ARE
          METHOD =QA                  UPHESS =BFGS    
          NNEG   =         0          NFRZ   =         0
          NSTEP  =        50          IFOLOW =         1
          HESS   =GUESS               RESTAR =         F
          IHREP  =         0          HSSEND =         F
          NPRT   =         0          NPUN   =         0
          OPTTOL = 1.000E-04          RMIN   = 1.500E-03
          RMAX   = 1.000E-01          RLIM   = 7.000E-02
          DXMAX  = 3.000E-01          PURIFY =         F
          MOVIE  =         F          TRUPD  =         T
          TRMAX  = 5.000E-01          TRMIN  = 5.000E-02
          ITBMAT =         5          STPT   =         F
          STSTEP = 1.000E-02          PROJCT=          T

 BEGINNING GEOMETRY SEARCH POINT NSERCH=   0 ...

 COORDINATES OF SYMMETRY UNIQUE ATOMS (ANGS)
   ATOM   CHARGE       X              Y              Z
 ------------------------------------------------------------
 N           7.0   0.0000000000   0.0000000000  -0.1592817187
 H           1.0   0.7581807764   0.0000000000   0.4764258594
 COORDINATES OF ALL ATOMS ARE (ANGS)
   ATOM   CHARGE       X              Y              Z
 ------------------------------------------------------------
 N           7.0   0.0000000000   0.0000000000  -0.1592817187
 H           1.0  -0.3790903882   0.6566038130   0.4764258594
 H           1.0  -0.3790903882  -0.6566038130   0.4764258594
 H           1.0   0.7581807764   0.0000000000   0.4764258594

          ********************
          1 ELECTRON INTEGRALS
          ********************
 ...... END OF ONE-ELECTRON INTEGRALS ......
 STEP CPU TIME =     0.00 TOTAL CPU TIME =          0.0 (      0.0 MIN)
 TOTAL WALL CLOCK TIME=          0.0 SECONDS, CPU UTILIZATION IS    97.56%

          -------------
          GUESS OPTIONS
          -------------
          GUESS =HUCKEL            NORB  =       0          NORDER=       0
          MIX   =       F          PRTMO =       F          PUNMO =       F
          TOLZ  = 1.0E-08          TOLE  = 1.0E-05
          SYMDEN=       F          PURIFY=       F

 INITIAL GUESS ORBITALS GENERATED BY HUCKEL   ROUTINE.
 HUCKEL GUESS REQUIRES      3444 WORDS.

 SYMMETRIES FOR INITIAL GUESS ORBITALS FOLLOW.   BOTH SET(S).
     5 ORBITALS ARE OCCUPIED (    1 CORE ORBITALS).
     2=A1       3=E        4=E        5=A1       6=E        7=E        8=A1  
 ...... END OF INITIAL ORBITAL SELECTION ......
 STEP CPU TIME =     0.00 TOTAL CPU TIME =          0.0 (      0.0 MIN)
 TOTAL WALL CLOCK TIME=          0.0 SECONDS, CPU UTILIZATION IS    97.76%

                    ----------------------
                    AO INTEGRAL TECHNOLOGY
                    ----------------------
     S,P,L SHELL ROTATED AXIS INTEGRALS, REPROGRAMMED BY
        KAZUYA ISHIMURA (IMS) AND JOSE SIERRA (SYNSTAR).
     S,P,D,L SHELL ROTATED AXIS INTEGRALS PROGRAMMED BY
        KAZUYA ISHIMURA (INSTITUTE FOR MOLECULAR SCIENCE).
     S,P,D,F,G SHELL TO TOTAL QUARTET ANGULAR MOMENTUM SUM 5,
        ERIC PROGRAM BY GRAHAM FLETCHER (ELORET AND NASA ADVANCED
        SUPERCOMPUTING DIVISION, AMES RESEARCH CENTER).
     S,P,D,F,G,L SHELL GENERAL RYS QUADRATURE PROGRAMMED BY
        MICHEL DUPUIS (PACIFIC NORTHWEST NATIONAL LABORATORY).

          --------------------
          2 ELECTRON INTEGRALS
          --------------------

 THE -PK- OPTION IS OFF, THE INTEGRALS ARE NOT IN SUPERMATRIX FORM.
 STORING   15000 INTEGRALS/RECORD ON DISK, USING 12 BYTES/INTEGRAL.
 TWO ELECTRON INTEGRAL EVALUATION REQUIRES   89371 WORDS OF MEMORY.
 II,JST,KST,LST =  1  1  1  1 NREC =         1 INTLOC =    1
 II,JST,KST,LST =  2  1  1  1 NREC =         1 INTLOC =    2
 II,JST,KST,LST =  3  1  1  1 NREC =         1 INTLOC =   34
 II,JST,KST,LST =  4  1  1  1 NREC =         1 INTLOC =   34
 II,JST,KST,LST =  5  1  1  1 NREC =         1 INTLOC =   34
 TOTAL NUMBER OF NONZERO TWO-ELECTRON INTEGRALS =                 164
          1 INTEGRAL RECORDS WERE STORED ON DISK FILE  8.
  ...... END OF TWO-ELECTRON INTEGRALS .....
 STEP CPU TIME =     0.01 TOTAL CPU TIME =          0.0 (      0.0 MIN)
 TOTAL WALL CLOCK TIME=          0.0 SECONDS, CPU UTILIZATION IS    99.20%

          --------------------------
                 RHF SCF CALCULATION
          --------------------------

     NUCLEAR ENERGY =        12.4403893239
     MAXIT =   30     NPUNCH=    2
     EXTRAP=T  DAMP=F  SHIFT=F  RSTRCT=F  DIIS=F  DEM=F  SOSCF=F
     DENSITY MATRIX CONV=  1.00E-05
     MEMORY REQUIRED FOR RHF ITERS=     30560 WORDS.

 ITER EX DEM     TOTAL ENERGY        E CHANGE  DENSITY CHANGE    DIIS ERROR
   1  0  0      -55.2367963026   -55.2367963026   0.641250433   0.000000000
   2  1  0      -55.3895425652    -0.1527462626   0.199308842   0.000000000
   3  2  0      -55.3976147405    -0.0080721753   0.059028718   0.000000000
   4  3  0      -55.3982420976    -0.0006273571   0.018934148   0.000000000
   5  0  0      -55.3983085758    -0.0000664782   0.008890569   0.000000000
   6  1  0      -55.3983191262    -0.0000105504   0.000926130   0.000000000
   7  2  0      -55.3983195713    -0.0000004450   0.000413459   0.000000000
   8  3  0      -55.3983196455    -0.0000000742   0.000181179   0.000000000
   9  4  0      -55.3983196581    -0.0000000126   0.000077301   0.000000000
  10  5  0      -55.3983196603    -0.0000000022   0.000032538   0.000000000
  11  6  0      -55.3983196606    -0.0000000004   0.000013599   0.000000000
  12  7  0      -55.3983196607    -0.0000000001   0.000005662   0.000000000

          -----------------
          DENSITY CONVERGED
          -----------------
     TIME TO FORM FOCK OPERATORS=       0.0 SECONDS (       0.0 SEC/ITER)
     TIME TO SOLVE SCF EQUATIONS=       0.0 SECONDS (       0.0 SEC/ITER)

 FINAL RHF ENERGY IS      -55.3983196607 AFTER  12 ITERATIONS

          ------------
          EIGENVECTORS
          ------------

                      1          2          3          4          5
                  -15.3397    -1.1745    -0.5510    -0.5510    -0.4249
                     A1         A1         E          E          A1  
    1  N  1  S    0.993430  -0.210674   0.000000   0.000000   0.135631
    2  N  1  S    0.032053   0.699044   0.000000   0.000000  -0.677995
    3  N  1  X    0.000000  -0.000000   0.627174   0.000000  -0.000000
    4  N  1  Y    0.000000  -0.000000   0.000000   0.627174  -0.000000
    5  N  1  Z    0.008002   0.216080   0.000000   0.000000   0.737621
    6  H  2  S   -0.006646   0.153182  -0.260230   0.450731   0.174000
    7  H  3  S   -0.006646   0.153182  -0.260230  -0.450731   0.174000
    8  H  4  S   -0.006646   0.153182   0.520459   0.000000   0.174000

                      6          7          8
                    0.6817     0.6817     0.6887
                     E          E          A1  
    1  N  1  S   -0.000000   0.000000  -0.163556
    2  N  1  S   -0.000000   0.000000   1.188896
    3  N  1  X   -0.982777   0.000000  -0.000000
    4  N  1  Y   -0.000000   0.982777  -0.000000
    5  N  1  Z   -0.000000   0.000000   0.895741
    6  H  2  S   -0.521487  -0.903242  -0.689269
    7  H  3  S   -0.521487   0.903242  -0.689269
    8  H  4  S    1.042974   0.000000  -0.689269
 ...... END OF RHF CALCULATION ......
 STEP CPU TIME =     0.00 TOTAL CPU TIME =          0.0 (      0.0 MIN)
 TOTAL WALL CLOCK TIME=          0.0 SECONDS, CPU UTILIZATION IS    99.11%

     ----------------------------------------------------------------
     PROPERTY VALUES FOR THE RHF   SELF-CONSISTENT FIELD WAVEFUNCTION
     ----------------------------------------------------------------

          -----------------
          ENERGY COMPONENTS
          -----------------

         WAVEFUNCTION NORMALIZATION =       1.0000000000

                ONE ELECTRON ENERGY =     -99.5952450340
                TWO ELECTRON ENERGY =      31.7565360493
           NUCLEAR REPULSION ENERGY =      12.4403893239
                                      ------------------
                       TOTAL ENERGY =     -55.3983196607

 ELECTRON-ELECTRON POTENTIAL ENERGY =      31.7565360493
  NUCLEUS-ELECTRON POTENTIAL ENERGY =    -154.9613183382
   NUCLEUS-NUCLEUS POTENTIAL ENERGY =      12.4403893239
                                      ------------------
             TOTAL POTENTIAL ENERGY =    -110.7643929649
               TOTAL KINETIC ENERGY =      55.3660733042
                 VIRIAL RATIO (V/T) =       2.0005824209

          ---------------------------------------
          MULLIKEN AND LOWDIN POPULATION ANALYSES
          ---------------------------------------

     ATOMIC MULLIKEN POPULATION IN EACH MOLECULAR ORBITAL

                      1          2          3          4          5

                  2.000000   2.000000   2.000000   2.000000   2.000000

    1             2.002742   1.393221   1.122364   1.122364   1.827597
    2            -0.000914   0.202260   0.146273   0.438818   0.057468
    3            -0.000914   0.202260   0.146273   0.438818   0.057468
    4            -0.000914   0.202260   0.585090   0.000000   0.057468

               ----- POPULATIONS IN EACH AO -----
                             MULLIKEN      LOWDIN
              1  N  1  S      1.99623     1.99469
              2  N  1  S      1.76734     1.52992
              3  N  1  X      1.12236     1.16030
              4  N  1  Y      1.12236     1.16030
              5  N  1  Z      1.45999     1.47094
              6  H  2  S      0.84390     0.89462
              7  H  3  S      0.84390     0.89462
              8  H  4  S      0.84390     0.89462

          ----- MULLIKEN ATOMIC OVERLAP POPULATIONS -----
          (OFF-DIAGONAL ELEMENTS NEED TO BE MULTIPLIED BY 2)

             1           2           3           4

    1    6.5581892
    2    0.3033664   0.6493255
    3    0.3033664  -0.0543941   0.6493255
    4    0.3033664  -0.0543941  -0.0543941   0.6493255

          TOTAL MULLIKEN AND LOWDIN ATOMIC POPULATIONS
       ATOM         MULL.POP.    CHARGE          LOW.POP.     CHARGE
    1 N             7.468289   -0.468289         7.316146   -0.316146
    2 H             0.843904    0.156096         0.894618    0.105382
    3 H             0.843904    0.156096         0.894618    0.105382
    4 H             0.843904    0.156096         0.894618    0.105382

          -------------------------------
          BOND ORDER AND VALENCE ANALYSIS     BOND ORDER THRESHOLD=0.050
          -------------------------------

                   BOND                       BOND                       BOND
  ATOM PAIR DIST  ORDER      ATOM PAIR DIST  ORDER      ATOM PAIR DIST  ORDER
    1   2  0.989  0.973        1   3  0.989  0.973        1   4  0.989  0.973

                       TOTAL       BONDED        FREE
      ATOM            VALENCE     VALENCE     VALENCE
    1 N                 2.920       2.920      -0.000
    2 H                 0.976       0.976       0.000
    3 H                 0.976       0.976      -0.000
    4 H                 0.976       0.976      -0.000

          ---------------------
          ELECTROSTATIC MOMENTS
          ---------------------

 POINT   1           X           Y           Z (BOHR)    CHARGE
                -0.000000    0.000000   -0.087677       -0.00 (A.U.)
         DX          DY          DZ         /D/  (DEBYE)
    -0.000000    0.000000    2.403172    2.403172
 ...... END OF PROPERTY EVALUATION ......
 STEP CPU TIME =     0.00 TOTAL CPU TIME =          0.0 (      0.0 MIN)
 TOTAL WALL CLOCK TIME=          0.0 SECONDS, CPU UTILIZATION IS    99.19%

 BEGINNING ONE ELECTRON GRADIENT...
 ..... END OF 1-ELECTRON GRADIENT ......
 STEP CPU TIME =     0.00 TOTAL CPU TIME =          0.0 (      0.0 MIN)
 TOTAL WALL CLOCK TIME=          0.0 SECONDS, CPU UTILIZATION IS    99.20%

          ----------------------
          GRADIENT OF THE ENERGY
          ----------------------
 THE COARSE/FINE SCHWARZ SCREENINGS SKIPPED            0/           0 BLOCKS.
 THE NUMBER OF GRADIENT INTEGRAL BLOCKS COMPUTED WAS        31
 ...... END OF 2-ELECTRON GRADIENT ......
 STEP CPU TIME =     0.00 TOTAL CPU TIME =          0.0 (      0.0 MIN)
 TOTAL WALL CLOCK TIME=          0.0 SECONDS, CPU UTILIZATION IS    99.21%

          NSERCH=  0     ENERGY=     -55.3983197

                                 -----------------------
                                 GRADIENT (HARTREE/BOHR)
                                 -----------------------
        ATOM     ZNUC       DE/DX         DE/DY         DE/DZ
 --------------------------------------------------------------
    1  N            7.0     0.0000000     0.0000000    -0.0093976
    2  H            1.0     0.0549492    -0.0951748     0.0031325
    3  H            1.0     0.0549492     0.0951748     0.0031325
    4  H            1.0    -0.1098984     0.0000000     0.0031325

          MAXIMUM GRADIENT = 0.1098984    RMS GRADIENT = 0.0550384

 NSERCH:   0  E=      -55.3983196607  GRAD. MAX=  0.1098984  R.M.S.=  0.0550384

          FORCE CONSTANT MATRIX NOT UPDATED --- TAKING FIRST STEP
          MIN SEARCH, CORRECT HESSIAN, TRYING PURE NR STEP
               NR STEP HAS LENGTH         =   0.857950
          TRIM/QA LAMBDA FOR NON-TS MODES =  -0.35304429
          TRIM/QA STEP HAS LENGTH         =   0.300000
          RADIUS OF STEP TAKEN=   0.30000  CURRENT TRUST RADIUS=   0.30000

 BEGINNING GEOMETRY SEARCH POINT NSERCH=   1 ...

 COORDINATES OF SYMMETRY UNIQUE ATOMS (ANGS)
   ATOM   CHARGE       X              Y              Z
 ------------------------------------------------------------
 N           7.0  -0.0000000000   0.0000000000  -0.1062739107
 H           1.0   0.8427505376   0.0000000000   0.4587565901
 COORDINATES OF ALL ATOMS ARE (ANGS)
   ATOM   CHARGE       X              Y              Z
 ------------------------------------------------------------
 N           7.0  -0.0000000000   0.0000000000  -0.1062739107
 H           1.0  -0.4213752688   0.7298433747   0.4587565901
 H           1.0  -0.4213752688  -0.7298433747   0.4587565901
 H           1.0   0.8427505376   0.0000000000   0.4587565901

          INTERNUCLEAR DISTANCES (ANGS.)
          ------------------------------

                1 N          2 H          3 H          4 H     

   1 N       0.0000000    1.0146368 *  1.0146368 *  1.0146368 *
   2 H       1.0146368 *  0.0000000    1.4596867 *  1.4596867 *
   3 H       1.0146368 *  1.4596867 *  0.0000000    1.4596867 *
   4 H       1.0146368 *  1.4596867 *  1.4596867 *  0.0000000  

  * ... LESS THAN  3.000

 ...... END OF ONE-ELECTRON INTEGRALS ......
 STEP CPU TIME =     0.00 TOTAL CPU TIME =          0.0 (      0.0 MIN)
 TOTAL WALL CLOCK TIME=          0.0 SECONDS, CPU UTILIZATION IS    99.22%
 TOTAL NUMBER OF NONZERO TWO-ELECTRON INTEGRALS =                 164
          1 INTEGRAL RECORDS WERE STORED ON DISK FILE  8.
  ...... END OF TWO-ELECTRON INTEGRALS .....
 STEP CPU TIME =     0.00 TOTAL CPU TIME =          0.0 (      0.0 MIN)
 TOTAL WALL CLOCK TIME=          0.0 SECONDS, CPU UTILIZATION IS    99.24%

          --------------------------
                 RHF SCF CALCULATION
          --------------------------
     DENSITY MATRIX CONV=  2.00E-04

 ITER EX DEM     TOTAL ENERGY        E CHANGE  DENSITY CHANGE    DIIS ERROR
   1  0  0      -55.4372088707   -55.4372088707   0.077650354   0.000000000
   2  1  0      -55.4384921402    -0.0012832695   0.028327942   0.000000000
   3  2  0      -55.4386917981    -0.0001996578   0.010770097   0.000000000
   4  3  0      -55.4387253956    -0.0000335976   0.004298947   0.000000000
   5  0  0      -55.4387311775    -0.0000057819   0.003051754   0.000000000
   6  1  0      -55.4387323876    -0.0000012101   0.000060266   0.000000000
   7  2  0      -55.4387323883    -0.0000000007   0.000020115   0.000000000
   8  3  0      -55.4387323884    -0.0000000001   0.000007187   0.000000000

          -----------------
          DENSITY CONVERGED
          -----------------
     TIME TO FORM FOCK OPERATORS=       0.0 SECONDS (       0.0 SEC/ITER)
     TIME TO SOLVE SCF EQUATIONS=       0.0 SECONDS (       0.0 SEC/ITER)

 FINAL RHF ENERGY IS      -55.4387323884 AFTER   8 ITERATIONS
 ...... END OF RHF CALCULATION ......
 STEP CPU TIME =     0.00 TOTAL CPU TIME =          0.0 (      0.0 MIN)
 TOTAL WALL CLOCK TIME=          0.0 SECONDS, CPU UTILIZATION IS    99.26%
 ..... END OF 1-ELECTRON GRADIENT ......
 STEP CPU TIME =     0.00 TOTAL CPU TIME =          0.0 (      0.0 MIN)
 TOTAL WALL CLOCK TIME=          0.0 SECONDS, CPU UTILIZATION IS    99.28%
 ...... END OF 2-ELECTRON GRADIENT ......
 STEP CPU TIME =     0.00 TOTAL CPU TIME =          0.0 (      0.0 MIN)
 TOTAL WALL CLOCK TIME=          0.0 SECONDS, CPU UTILIZATION IS    99.28%

          NSERCH=  1     ENERGY=     -55.4387324

                                 -----------------------
                                 GRADIENT (HARTREE/BOHR)
                                 -----------------------
        ATOM     ZNUC       DE/DX         DE/DY         DE/DZ
 --------------------------------------------------------------
    1  N            7.0     0.0000000     0.0000000    -0.0254964
    2  H            1.0     0.0248524    -0.0430457     0.0084988
    3  H            1.0     0.0248524     0.0430457     0.0084988
    4  H            1.0    -0.0497049     0.0000000     0.0084988

          MAXIMUM GRADIENT = 0.0497049    RMS GRADIENT = 0.0262654

 NSERCH:   1  E=      -55.4387323884  GRAD. MAX=  0.0497049  R.M.S.=  0.0262654

          HESSIAN UPDATED USING THE BFGS FORMULA
             ACTUAL ENERGY CHANGE WAS  -0.0404127277
          PREDICTED ENERGY CHANGE WAS  -0.0428594583 RATIO=  0.943
          MIN SEARCH, CORRECT HESSIAN, TRYING PURE NR STEP
               NR STEP HAS LENGTH         =   0.365310
          RADIUS OF STEP TAKEN=   0.36531  CURRENT TRUST RADIUS=   0.50000

 BEGINNING GEOMETRY SEARCH POINT NSERCH=   2 ...

 COORDINATES OF SYMMETRY UNIQUE ATOMS (ANGS)
   ATOM   CHARGE       X              Y              Z
 ------------------------------------------------------------
 N           7.0  -0.0000000000   0.0000000000  -0.0099106511
 H           1.0   0.9340175645   0.0000000000   0.4266355035
 COORDINATES OF ALL ATOMS ARE (ANGS)
   ATOM   CHARGE       X              Y              Z
 ------------------------------------------------------------
 N           7.0  -0.0000000000   0.0000000000  -0.0099106511
 H           1.0  -0.4670087823   0.8088829385   0.4266355035
 H           1.0  -0.4670087823  -0.8088829385   0.4266355035
 H           1.0   0.9340175645   0.0000000000   0.4266355035

          INTERNUCLEAR DISTANCES (ANGS.)
          ------------------------------

                1 N          2 H          3 H          4 H     

   1 N       0.0000000    1.0310002 *  1.0310002 *  1.0310002 *
   2 H       1.0310002 *  0.0000000    1.6177659 *  1.6177659 *
   3 H       1.0310002 *  1.6177659 *  0.0000000    1.6177659 *
   4 H       1.0310002 *  1.6177659 *  1.6177659 *  0.0000000  

  * ... LESS THAN  3.000

 ...... END OF ONE-ELECTRON INTEGRALS ......
 STEP CPU TIME =     0.00 TOTAL CPU TIME =          0.0 (      0.0 MIN)
 TOTAL WALL CLOCK TIME=          0.0 SECONDS, CPU UTILIZATION IS    99.29%
 TOTAL NUMBER OF NONZERO TWO-ELECTRON INTEGRALS =                 164
          1 INTEGRAL RECORDS WERE STORED ON DISK FILE  8.
  ...... END OF TWO-ELECTRON INTEGRALS .....
 STEP CPU TIME =     0.00 TOTAL CPU TIME =          0.0 (      0.0 MIN)
 TOTAL WALL CLOCK TIME=          0.0 SECONDS, CPU UTILIZATION IS    99.30%

          --------------------------
                 RHF SCF CALCULATION
          --------------------------
     DENSITY MATRIX CONV=  2.00E-04

 ITER EX DEM     TOTAL ENERGY        E CHANGE  DENSITY CHANGE    DIIS ERROR
   1  0  0      -55.4509121014   -55.4509121014   0.118122880   0.000000000
   2  1  0      -55.4545677439    -0.0036556425   0.047010969   0.000000000
   3  2  0      -55.4552063284    -0.0006385845   0.018413481   0.000000000
   4  3  0      -55.4553202716    -0.0001139432   0.007629301   0.000000000
   5  0  0      -55.4553407047    -0.0000204331   0.005554162   0.000000000
   6  1  0      -55.4553451650    -0.0000044603   0.000059629   0.000000000
   7  2  0      -55.4553451657    -0.0000000007   0.000020140   0.000000000
   8  3  0      -55.4553451658    -0.0000000001   0.000007488   0.000000000

          -----------------
          DENSITY CONVERGED
          -----------------
     TIME TO FORM FOCK OPERATORS=       0.0 SECONDS (       0.0 SEC/ITER)
     TIME TO SOLVE SCF EQUATIONS=       0.0 SECONDS (       0.0 SEC/ITER)

 FINAL RHF ENERGY IS      -55.4553451658 AFTER   8 ITERATIONS
 ...... END OF RHF CALCULATION ......
 STEP CPU TIME =     0.00 TOTAL CPU TIME =          0.0 (      0.0 MIN)
 TOTAL WALL CLOCK TIME=          0.0 SECONDS, CPU UTILIZATION IS    99.32%
 ..... END OF 1-ELECTRON GRADIENT ......
 STEP CPU TIME =     0.00 TOTAL CPU TIME =          0.0 (      0.0 MIN)
 TOTAL WALL CLOCK TIME=          0.0 SECONDS, CPU UTILIZATION IS    99.33%
 ...... END OF 2-ELECTRON GRADIENT ......
 STEP CPU TIME =     0.00 TOTAL CPU TIME =          0.0 (      0.0 MIN)
 TOTAL WALL CLOCK TIME=          0.0 SECONDS, CPU UTILIZATION IS    99.31%

          NSERCH=  2     ENERGY=     -55.4553452

                                 -----------------------
                                 GRADIENT (HARTREE/BOHR)
                                 -----------------------
        ATOM     ZNUC       DE/DX         DE/DY         DE/DZ
 --------------------------------------------------------------
    1  N            7.0     0.0000000     0.0000000    -0.0014446
    2  H            1.0     0.0016273    -0.0028185     0.0004815
    3  H            1.0     0.0016273     0.0028185     0.0004815
    4  H            1.0    -0.0032545     0.0000000     0.0004815

          MAXIMUM GRADIENT = 0.0032545    RMS GRADIENT = 0.0016970

 NSERCH:   2  E=      -55.4553451658  GRAD. MAX=  0.0032545  R.M.S.=  0.0016970

          HESSIAN UPDATED USING THE BFGS FORMULA
             ACTUAL ENERGY CHANGE WAS  -0.0166127774
          PREDICTED ENERGY CHANGE WAS  -0.0159541423 RATIO=  1.041
          MIN SEARCH, CORRECT HESSIAN, TRYING PURE NR STEP
               NR STEP HAS LENGTH         =   0.024788
          RADIUS OF STEP TAKEN=   0.02479  CURRENT TRUST RADIUS=   0.50000

 BEGINNING GEOMETRY SEARCH POINT NSERCH=   3 ...

 COORDINATES OF SYMMETRY UNIQUE ATOMS (ANGS)
   ATOM   CHARGE       X              Y              Z
 ------------------------------------------------------------
 N           7.0  -0.0000000000   0.0000000000  -0.0034966745
 H           1.0   0.9402680204   0.0000000000   0.4244975113
 COORDINATES OF ALL ATOMS ARE (ANGS)
   ATOM   CHARGE       X              Y              Z
 ------------------------------------------------------------
 N           7.0  -0.0000000000   0.0000000000  -0.0034966745
 H           1.0  -0.4701340102   0.8142959921   0.4244975113
 H           1.0  -0.4701340102  -0.8142959921   0.4244975113
 H           1.0   0.9402680204   0.0000000000   0.4244975113

          INTERNUCLEAR DISTANCES (ANGS.)
          ------------------------------

                1 N          2 H          3 H          4 H     

   1 N       0.0000000    1.0330939 *  1.0330939 *  1.0330939 *
   2 H       1.0330939 *  0.0000000    1.6285920 *  1.6285920 *
   3 H       1.0330939 *  1.6285920 *  0.0000000    1.6285920 *
   4 H       1.0330939 *  1.6285920 *  1.6285920 *  0.0000000  

  * ... LESS THAN  3.000

 ...... END OF ONE-ELECTRON INTEGRALS ......
 STEP CPU TIME =     0.00 TOTAL CPU TIME =          0.0 (      0.0 MIN)
 TOTAL WALL CLOCK TIME=          0.0 SECONDS, CPU UTILIZATION IS    99.31%
 TOTAL NUMBER OF NONZERO TWO-ELECTRON INTEGRALS =                 164
          1 INTEGRAL RECORDS WERE STORED ON DISK FILE  8.
  ...... END OF TWO-ELECTRON INTEGRALS .....
 STEP CPU TIME =     0.00 TOTAL CPU TIME =          0.0 (      0.0 MIN)
 TOTAL WALL CLOCK TIME=          0.0 SECONDS, CPU UTILIZATION IS    99.32%

          --------------------------
                 RHF SCF CALCULATION
          --------------------------
     DENSITY MATRIX CONV=  1.00E-05

 ITER EX DEM     TOTAL ENERGY        E CHANGE  DENSITY CHANGE    DIIS ERROR
   1  0  0      -55.4553987001   -55.4553987001   0.007401567   0.000000000
   2  1  0      -55.4554146366    -0.0000159365   0.002945300   0.000000000
   3  2  0      -55.4554174147    -0.0000027781   0.001196576   0.000000000
   4  3  0      -55.4554179107    -0.0000004960   0.000496380   0.000000000
   5  4  0      -55.4554179997    -0.0000000890   0.000207590   0.000000000
   6  5  0      -55.4554180157    -0.0000000160   0.000087374   0.000000000
   7  6  0      -55.4554180186    -0.0000000029   0.000036889   0.000000000
   8  7  0      -55.4554180191    -0.0000000005   0.000015606   0.000000000
   9  8  0      -55.4554180192    -0.0000000001   0.000006610   0.000000000

          -----------------
          DENSITY CONVERGED
          -----------------
     TIME TO FORM FOCK OPERATORS=       0.0 SECONDS (       0.0 SEC/ITER)
     TIME TO SOLVE SCF EQUATIONS=       0.0 SECONDS (       0.0 SEC/ITER)

 FINAL RHF ENERGY IS      -55.4554180192 AFTER   9 ITERATIONS
 ...... END OF RHF CALCULATION ......
 STEP CPU TIME =     0.00 TOTAL CPU TIME =          0.0 (      0.0 MIN)
 TOTAL WALL CLOCK TIME=          0.0 SECONDS, CPU UTILIZATION IS    99.35%
 ..... END OF 1-ELECTRON GRADIENT ......
 STEP CPU TIME =     0.00 TOTAL CPU TIME =          0.0 (      0.0 MIN)
 TOTAL WALL CLOCK TIME=          0.0 SECONDS, CPU UTILIZATION IS    99.36%
 ...... END OF 2-ELECTRON GRADIENT ......
 STEP CPU TIME =     0.00 TOTAL CPU TIME =          0.0 (      0.0 MIN)
 TOTAL WALL CLOCK TIME=          0.0 SECONDS, CPU UTILIZATION IS    99.36%

          NSERCH=  3     ENERGY=     -55.4554180

                                 -----------------------
                                 GRADIENT (HARTREE/BOHR)
                                 -----------------------
        ATOM     ZNUC       DE/DX         DE/DY         DE/DZ
 --------------------------------------------------------------
    1  N            7.0     0.0000000     0.0000000    -0.0010506
    2  H            1.0    -0.0001394     0.0002415     0.0003502
    3  H            1.0    -0.0001394    -0.0002415     0.0003502
    4  H            1.0     0.0002789     0.0000000     0.0003502

          MAXIMUM GRADIENT = 0.0010506    RMS GRADIENT = 0.0003769

 NSERCH:   3  E=      -55.4554180192  GRAD. MAX=  0.0010506  R.M.S.=  0.0003769

          HESSIAN UPDATED USING THE BFGS FORMULA
             ACTUAL ENERGY CHANGE WAS  -0.0000728534
          PREDICTED ENERGY CHANGE WAS  -0.0000693348 RATIO=  1.051
          MIN SEARCH, CORRECT HESSIAN, TRYING PURE NR STEP
               NR STEP HAS LENGTH         =   0.002941
          RADIUS OF STEP TAKEN=   0.00294  CURRENT TRUST RADIUS=   0.05000

 BEGINNING GEOMETRY SEARCH POINT NSERCH=   4 ...

 COORDINATES OF SYMMETRY UNIQUE ATOMS (ANGS)
   ATOM   CHARGE       X              Y              Z
 ------------------------------------------------------------
 N           7.0  -0.0000000000   0.0000000000  -0.0022217122
 H           1.0   0.9405591170   0.0000000000   0.4240725239
 COORDINATES OF ALL ATOMS ARE (ANGS)
   ATOM   CHARGE       X              Y              Z
 ------------------------------------------------------------
 N           7.0  -0.0000000000   0.0000000000  -0.0022217122
 H           1.0  -0.4702795585   0.8145480891   0.4240725239
 H           1.0  -0.4702795585  -0.8145480891   0.4240725239
 H           1.0   0.9405591170   0.0000000000   0.4240725239

          INTERNUCLEAR DISTANCES (ANGS.)
          ------------------------------

                1 N          2 H          3 H          4 H     

   1 N       0.0000000    1.0326559 *  1.0326559 *  1.0326559 *
   2 H       1.0326559 *  0.0000000    1.6290962 *  1.6290962 *
   3 H       1.0326559 *  1.6290962 *  0.0000000    1.6290962 *
   4 H       1.0326559 *  1.6290962 *  1.6290962 *  0.0000000  

  * ... LESS THAN  3.000

 ...... END OF ONE-ELECTRON INTEGRALS ......
 STEP CPU TIME =     0.00 TOTAL CPU TIME =          0.0 (      0.0 MIN)
 TOTAL WALL CLOCK TIME=          0.0 SECONDS, CPU UTILIZATION IS    99.37%
 TOTAL NUMBER OF NONZERO TWO-ELECTRON INTEGRALS =                 164
          1 INTEGRAL RECORDS WERE STORED ON DISK FILE  8.
  ...... END OF TWO-ELECTRON INTEGRALS .....
 STEP CPU TIME =     0.00 TOTAL CPU TIME =          0.0 (      0.0 MIN)
 TOTAL WALL CLOCK TIME=          0.0 SECONDS, CPU UTILIZATION IS    99.37%

          --------------------------
                 RHF SCF CALCULATION
          --------------------------
     DENSITY MATRIX CONV=  1.00E-05

 ITER EX DEM     TOTAL ENERGY        E CHANGE  DENSITY CHANGE    DIIS ERROR
   1  0  0      -55.4554187056   -55.4554187056   0.001435030   0.000000000
   2  1  0      -55.4554195655    -0.0000008600   0.000674676   0.000000000
   3  2  0      -55.4554197042    -0.0000001387   0.000259225   0.000000000
   4  3  0      -55.4554197286    -0.0000000244   0.000110380   0.000000000
   5  4  0      -55.4554197330    -0.0000000044   0.000045754   0.000000000
   6  5  0      -55.4554197337    -0.0000000008   0.000019334   0.000000000
   7  6  0      -55.4554197339    -0.0000000001   0.000008150   0.000000000

          -----------------
          DENSITY CONVERGED
          -----------------
     TIME TO FORM FOCK OPERATORS=       0.0 SECONDS (       0.0 SEC/ITER)
     TIME TO SOLVE SCF EQUATIONS=       0.0 SECONDS (       0.0 SEC/ITER)

 FINAL RHF ENERGY IS      -55.4554197339 AFTER   7 ITERATIONS
 ...... END OF RHF CALCULATION ......
 STEP CPU TIME =     0.00 TOTAL CPU TIME =          0.0 (      0.0 MIN)
 TOTAL WALL CLOCK TIME=          0.0 SECONDS, CPU UTILIZATION IS    99.39%
 ..... END OF 1-ELECTRON GRADIENT ......
 STEP CPU TIME =     0.00 TOTAL CPU TIME =          0.0 (      0.0 MIN)
 TOTAL WALL CLOCK TIME=          0.0 SECONDS, CPU UTILIZATION IS    99.40%
 ...... END OF 2-ELECTRON GRADIENT ......
 STEP CPU TIME =     0.00 TOTAL CPU TIME =          0.0 (      0.0 MIN)
 TOTAL WALL CLOCK TIME=          0.0 SECONDS, CPU UTILIZATION IS    99.40%

          NSERCH=  4     ENERGY=     -55.4554197

                                 -----------------------
                                 GRADIENT (HARTREE/BOHR)
                                 -----------------------
        ATOM     ZNUC       DE/DX         DE/DY         DE/DZ
 --------------------------------------------------------------
    1  N            7.0     0.0000000     0.0000000    -0.0002039
    2  H            1.0    -0.0000440     0.0000762     0.0000680
    3  H            1.0    -0.0000440    -0.0000762     0.0000680
    4  H            1.0     0.0000880     0.0000000     0.0000680

          MAXIMUM GRADIENT = 0.0002039    RMS GRADIENT = 0.0000810

 NSERCH:   4  E=      -55.4554197339  GRAD. MAX=  0.0002039  R.M.S.=  0.0000810

          HESSIAN UPDATED USING THE BFGS FORMULA
             ACTUAL ENERGY CHANGE WAS  -0.0000017147
          PREDICTED ENERGY CHANGE WAS  -0.0000014573 RATIO=  1.177
          MIN SEARCH, CORRECT HESSIAN, TRYING PURE NR STEP
               NR STEP HAS LENGTH         =   0.000522
          RADIUS OF STEP TAKEN=   0.00052  CURRENT TRUST RADIUS=   0.05000

 BEGINNING GEOMETRY SEARCH POINT NSERCH=   5 ...

 COORDINATES OF SYMMETRY UNIQUE ATOMS (ANGS)
   ATOM   CHARGE       X              Y              Z
 ------------------------------------------------------------
 N           7.0  -0.0000000000   0.0000000000  -0.0019825338
 H           1.0   0.9405596513   0.0000000000   0.4239927978
 COORDINATES OF ALL ATOMS ARE (ANGS)
   ATOM   CHARGE       X              Y              Z
 ------------------------------------------------------------
 N           7.0  -0.0000000000   0.0000000000  -0.0019825338
 H           1.0  -0.4702798257   0.8145485518   0.4239927978
 H           1.0  -0.4702798257  -0.8145485518   0.4239927978
 H           1.0   0.9405596513   0.0000000000   0.4239927978

          INTERNUCLEAR DISTANCES (ANGS.)
          ------------------------------

                1 N          2 H          3 H          4 H     

   1 N       0.0000000    1.0325248 *  1.0325248 *  1.0325248 *
   2 H       1.0325248 *  0.0000000    1.6290971 *  1.6290971 *
   3 H       1.0325248 *  1.6290971 *  0.0000000    1.6290971 *
   4 H       1.0325248 *  1.6290971 *  1.6290971 *  0.0000000  

  * ... LESS THAN  3.000

 ...... END OF ONE-ELECTRON INTEGRALS ......
 STEP CPU TIME =     0.00 TOTAL CPU TIME =          0.0 (      0.0 MIN)
 TOTAL WALL CLOCK TIME=          0.0 SECONDS, CPU UTILIZATION IS    99.41%
 TOTAL NUMBER OF NONZERO TWO-ELECTRON INTEGRALS =                 164
          1 INTEGRAL RECORDS WERE STORED ON DISK FILE  8.
  ...... END OF TWO-ELECTRON INTEGRALS .....
 STEP CPU TIME =     0.00 TOTAL CPU TIME =          0.0 (      0.0 MIN)
 TOTAL WALL CLOCK TIME=          0.0 SECONDS, CPU UTILIZATION IS    99.41%

          --------------------------
                 RHF SCF CALCULATION
          --------------------------
     DENSITY MATRIX CONV=  1.00E-05

 ITER EX DEM     TOTAL ENERGY        E CHANGE  DENSITY CHANGE    DIIS ERROR
   1  0  0      -55.4554197555   -55.4554197555   0.000270241   0.000000000
   2  1  0      -55.4554197902    -0.0000000347   0.000132989   0.000000000
   3  2  0      -55.4554197955    -0.0000000053   0.000050374   0.000000000
   4  3  0      -55.4554197965    -0.0000000009   0.000021592   0.000000000
   5  4  0      -55.4554197966    -0.0000000002   0.000008930   0.000000000
   6  5  0      -55.4554197967    -0.0000000000   0.000003777   0.000000000

          -----------------
          DENSITY CONVERGED
          -----------------
     TIME TO FORM FOCK OPERATORS=       0.0 SECONDS (       0.0 SEC/ITER)
     TIME TO SOLVE SCF EQUATIONS=       0.0 SECONDS (       0.0 SEC/ITER)

 FINAL RHF ENERGY IS      -55.4554197967 AFTER   6 ITERATIONS
 ...... END OF RHF CALCULATION ......
 STEP CPU TIME =     0.00 TOTAL CPU TIME =          0.0 (      0.0 MIN)
 TOTAL WALL CLOCK TIME=          0.0 SECONDS, CPU UTILIZATION IS    99.43%
 ..... END OF 1-ELECTRON GRADIENT ......
 STEP CPU TIME =     0.00 TOTAL CPU TIME =          0.0 (      0.0 MIN)
 TOTAL WALL CLOCK TIME=          0.0 SECONDS, CPU UTILIZATION IS    99.43%
 ...... END OF 2-ELECTRON GRADIENT ......
 STEP CPU TIME =     0.00 TOTAL CPU TIME =          0.0 (      0.0 MIN)
 TOTAL WALL CLOCK TIME=          0.0 SECONDS, CPU UTILIZATION IS    99.43%

          NSERCH=  5     ENERGY=     -55.4554198

                                 -----------------------
                                 GRADIENT (HARTREE/BOHR)
                                 -----------------------
        ATOM     ZNUC       DE/DX         DE/DY         DE/DZ
 --------------------------------------------------------------
    1  N            7.0     0.0000000     0.0000000    -0.0000025
    2  H            1.0    -0.0000006     0.0000011     0.0000008
    3  H            1.0    -0.0000006    -0.0000011     0.0000008
    4  H            1.0     0.0000012     0.0000000     0.0000008

          MAXIMUM GRADIENT = 0.0000025    RMS GRADIENT = 0.0000010

 NSERCH:   5  E=      -55.4554197967  GRAD. MAX=  0.0000025  R.M.S.=  0.0000010


      ***** EQUILIBRIUM GEOMETRY LOCATED *****
 COORDINATES OF SYMMETRY UNIQUE ATOMS (ANGS)
   ATOM   CHARGE       X              Y              Z
 ------------------------------------------------------------
 N           7.0  -0.0000000000   0.0000000000  -0.0019825338
 H           1.0   0.9405596513   0.0000000000   0.4239927978
 COORDINATES OF ALL ATOMS ARE (ANGS)
   ATOM   CHARGE       X              Y              Z
 ------------------------------------------------------------
 N           7.0  -0.0000000000   0.0000000000  -0.0019825338
 H           1.0  -0.4702798257   0.8145485518   0.4239927978
 H           1.0  -0.4702798257  -0.8145485518   0.4239927978
 H           1.0   0.9405596513   0.0000000000   0.4239927978

          INTERNUCLEAR DISTANCES (ANGS.)
          ------------------------------

                1 N          2 H          3 H          4 H     

   1 N       0.0000000    1.0325248 *  1.0325248 *  1.0325248 *
   2 H       1.0325248 *  0.0000000    1.6290971 *  1.6290971 *
   3 H       1.0325248 *  1.6290971 *  0.0000000    1.6290971 *
   4 H       1.0325248 *  1.6290971 *  1.6290971 *  0.0000000  

  * ... LESS THAN  3.000


          NUCLEAR ENERGY    =       11.7371543494
          ELECTRONIC ENERGY =      -67.1925741461
          TOTAL ENERGY      =      -55.4554197967

          ------------------
          MOLECULAR ORBITALS
          ------------------

                      1          2          3          4          5
                  -15.3128    -1.0867    -0.5615    -0.5615    -0.3585
                     A1         A1         E          E          A1  
    1  N  1  S   -0.993452  -0.218930   0.000000   0.000000  -0.095885
    2  N  1  S   -0.031334   0.739762   0.000000   0.000000   0.481874
    3  N  1  X    0.000000   0.000000   0.593385   0.000000   0.000000
    4  N  1  Y    0.000000   0.000000   0.000000   0.593385   0.000000
    5  N  1  Z   -0.005194   0.141223   0.000000   0.000000  -0.870678
    6  H  2  S    0.006465   0.159050  -0.250517   0.433909  -0.138163
    7  H  3  S    0.006465   0.159050  -0.250517  -0.433909  -0.138163
    8  H  4  S    0.006465   0.159050   0.501034   0.000000  -0.138163

                      6          7          8
                    0.6250     0.7002     0.7002
                     A1         E          E   
    1  N  1  S    0.179969   0.000000   0.000000
    2  N  1  S   -1.211417   0.000000   0.000000
    3  N  1  X    0.000000   1.033439   0.000000
    4  N  1  Y    0.000000   0.000000   1.033439
    5  N  1  Z   -0.612854   0.000000   0.000000
    6  H  2  S    0.701157   0.487730  -0.844774
    7  H  3  S    0.701157   0.487730   0.844774
    8  H  4  S    0.701157  -0.975460   0.000000

     ----------------------------------------------------------------
     PROPERTY VALUES FOR THE RHF   SELF-CONSISTENT FIELD WAVEFUNCTION
     ----------------------------------------------------------------

          -----------------
          ENERGY COMPONENTS
          -----------------

         WAVEFUNCTION NORMALIZATION =       1.0000000000

                ONE ELECTRON ENERGY =     -98.6230858897
                TWO ELECTRON ENERGY =      31.4305117436
           NUCLEAR REPULSION ENERGY =      11.7371543494
                                      ------------------
                       TOTAL ENERGY =     -55.4554197967

 ELECTRON-ELECTRON POTENTIAL ENERGY =      31.4305117436
  NUCLEUS-ELECTRON POTENTIAL ENERGY =    -153.6982068472
   NUCLEUS-NUCLEUS POTENTIAL ENERGY =      11.7371543494
                                      ------------------
             TOTAL POTENTIAL ENERGY =    -110.5305407542
               TOTAL KINETIC ENERGY =      55.0751209575
                 VIRIAL RATIO (V/T) =       2.0069050931

          ---------------------------------------
          MULLIKEN AND LOWDIN POPULATION ANALYSES
          ---------------------------------------

     ATOMIC MULLIKEN POPULATION IN EACH MOLECULAR ORBITAL

                      1          2          3          4          5

                  2.000000   2.000000   2.000000   2.000000   2.000000

    1             2.002409   1.430810   1.055658   1.055658   1.896125
    2            -0.000803   0.189730   0.157390   0.472171   0.034625
    3            -0.000803   0.189730   0.157390   0.472171   0.034625
    4            -0.000803   0.189730   0.629561   0.000000   0.034625

               ----- POPULATIONS IN EACH AO -----
                             MULLIKEN      LOWDIN
              1  N  1  S      1.99557     1.99259
              2  N  1  S      1.62485     1.41345
              3  N  1  X      1.05566     1.08195
              4  N  1  Y      1.05566     1.08195
              5  N  1  Z      1.70892     1.71674
              6  H  2  S      0.85311     0.90444
              7  H  3  S      0.85311     0.90444
              8  H  4  S      0.85311     0.90444

          ----- MULLIKEN ATOMIC OVERLAP POPULATIONS -----
          (OFF-DIAGONAL ELEMENTS NEED TO BE MULTIPLIED BY 2)

             1           2           3           4

    1    6.4470964
    2    0.3311884   0.5909266
    3    0.3311884  -0.0345011   0.5909266
    4    0.3311884  -0.0345011  -0.0345011   0.5909266

          TOTAL MULLIKEN AND LOWDIN ATOMIC POPULATIONS
       ATOM         MULL.POP.    CHARGE          LOW.POP.     CHARGE
    1 N             7.440662   -0.440662         7.286688   -0.286688
    2 H             0.853113    0.146887         0.904437    0.095563
    3 H             0.853113    0.146887         0.904437    0.095563
    4 H             0.853113    0.146887         0.904437    0.095563

          -------------------------------
          BOND ORDER AND VALENCE ANALYSIS     BOND ORDER THRESHOLD=0.050
          -------------------------------

                   BOND                       BOND                       BOND
  ATOM PAIR DIST  ORDER      ATOM PAIR DIST  ORDER      ATOM PAIR DIST  ORDER
    1   2  1.033  0.962        1   3  1.033  0.962        1   4  1.033  0.962

                       TOTAL       BONDED        FREE
      ATOM            VALENCE     VALENCE     VALENCE
    1 N                 2.885       2.885      -0.000
    2 H                 0.978       0.978      -0.000
    3 H                 0.978       0.978      -0.000
    4 H                 0.978       0.978      -0.000

          ---------------------
          ELECTROSTATIC MOMENTS
          ---------------------

 POINT   1           X           Y           Z (BOHR)    CHARGE
                -0.000000    0.000000    0.139197       -0.00 (A.U.)
         DX          DY          DZ         /D/  (DEBYE)
    -0.000000    0.000000    1.875810    1.875810
 ...... END OF PROPERTY EVALUATION ......
 STEP CPU TIME =     0.00 TOTAL CPU TIME =          0.0 (      0.0 MIN)
 TOTAL WALL CLOCK TIME=          0.0 SECONDS, CPU UTILIZATION IS    99.46%
  $VIB   
          IVIB=   0 IATOM=   0 ICOORD=   0 E=      -55.4554197967
  0.000000000E+00 0.000000000E+00-2.460966628E-06-6.219644343E-07 1.077274001E-06
  8.203222075E-07-6.219644343E-07-1.077274001E-06 8.203222075E-07 1.243928869E-06
  0.000000000E+00 8.203222075E-07
 -5.079468846E-15 1.347895549E-14 1.875810498E+00
 ......END OF GEOMETRY SEARCH......
 STEP CPU TIME =     0.00 TOTAL CPU TIME =          0.0 (      0.0 MIN)
 TOTAL WALL CLOCK TIME=          0.0 SECONDS, CPU UTILIZATION IS    99.46%
               580000  WORDS OF DYNAMIC MEMORY USED
 EXECUTION OF GAMESS TERMINATED NORMALLY 11:30:21 23-JUN-2021    
 DDI: 263640 bytes (0.3 MB / 0 MWords) used by master data server.

 ----------------------------------------
 CPU timing information for all processes
 ========================================
 0: 0.29 + 0.05 = 0.34
 ----------------------------------------
 ddikick.x: exited gracefully.
unset echo
----- accounting info -----
Files used on the master node jackson-Z97X-UD3H-BK were:
-rw-rw-r-- 1 jackson jackson     308 Jun 23 11:30 /home/jackson/Source/GamessRuns/3a.F05
-rw-rw-r-- 1 jackson jackson  180016 Jun 23 11:30 /home/jackson/Source/GamessRuns/3a.F08
-rw-rw-r-- 1 jackson jackson 1668720 Jun 23 11:30 /home/jackson/Source/GamessRuns/3a.F10
ls: No match.
ls: No match.
ls: No match.
Wed 23 Jun 2021 11:30:24 AM CDT
0.1u 0.0s 0:03.27 7.0% 0+0k 0+24io 0pf+0w
