----- GAMESS execution script 'rungms' -----
This job is running on host jackson-Z97X-UD3H-BK
under operating system Linux at Wed 23 Jun 2021 11:30:47 AM CDT
Available scratch disk space (Kbyte units) at beginning of the job is
Filesystem     1K-blocks     Used Available Use% Mounted on
/dev/sda2      114337956 62176276  46310544  58% /
GAMESS temporary binary files will be written to /home/jackson/Source/GamessRuns
GAMESS supplementary output files will be written to /home/jackson/Source/gamess/GamessRunsOutput
Copying input file ./3c.inp to your run's scratch directory...
cp ./3c.inp /home/jackson/Source/GamessRuns/3c.F05
unset echo
/home/jackson/Source/gamess/ddikick.x /home/jackson/Source/gamess/gamess.01.x 3c -ddi 1 1 jackson-Z97X-UD3H-BK -scr /home/jackson/Source/GamessRuns

 Distributed Data Interface kickoff program.
 Initiating 1 compute processes on 1 nodes to run the following command:
 /home/jackson/Source/gamess/gamess.01.x 3c 

          *******************************************************
          *                                                     *
          *          GAMESS VERSION = 30 SEP 2020 (R2)          *
          *                                                     *
          *              doi.org/10.1063/5.0005188              *
          *                                                     *
          **************** 64 BIT LINUX VERSION *****************

  GAMESS HAS BEEN MADE POSSIBLE WITH IMPORTANT CONTRIBUTIONS FROM
  THE FOLLOWING INDIVIDUALS (IN ALPHABETICAL ORDER):

     IVANA ADAMOVIC, CHRISTINE AIKENS, TOMOKO AKAMA,
     YURI ALEXEEV, YURIKO AOKI, POOJA ARORA, TOSHIO ASADA,
     ANDREY ASADCHEV, KIM K. BALDRIDGE, PRADIPTA BANDYOPADHYAY,
     MARIA BARYSZ, ROB BELL, JONATHAN BENTZ, COLLEEN BERTONI,
     JERRY A. BOATZ, BRETT BODE, KURT BRORSEN, KURT R. BRORSEN,
     LAIMUTIS BYTAUTAS, CALEB CARLIN, LAURA CARRINGTON,
     GALINA CHABAN, BENOIT CHAMPAGNE, WEI CHEN, MAHITO CHIBA,
     DAN CHIPMAN, CHEOL HO CHOI, TANNER CULPITT,
     DIPAYAN DATTA, PAUL DAY, ALBERT DEFUSCO,
     NUWAN DESILVA, J. EMILIANO DEUSTUA,
     TIM DUDLEY, MICHEL DUPUIS, STEVEN T. ELBERT,
     DMITRI FEDOROV, ALEX FINDLATER, GRAHAM FLETCHER,
     MARK FREITAG, CHRISTIAN FRIEDL, DAVID GARMER,
     IGOR S. GERASIMOV, KURT GLAESEMANN, MARK S. GORDON,
     JEFFREY GOUR, FENG LONG GU, EMILIE B. GUIDEZ,
     ANASTASIA GUNINA, SHARON HAMMES-SCHIFFER, MASATAKE HARUTA,
     KIMIHIKO HIRAO, YASUHIRO IKABATA, TZVETELIN IORDANOV,
     STEPHAN IRLE, KAZUYA ISHIMURA, JOE IVANIC, FRANK JENSEN,
     JAN H. JENSEN, VISVALDAS KAIRYS, MUNEAKI KAMIYA,
     MICHIO KATOUDA, NAOAKI KAWAKAMI, DAN KEMP, BERNARD KIRTMAN,
     KAZUO KITAURA, MARIUSZ KLOBUKOWSKI, MASATO KOBAYASHI,
     PRAKASHAN KORAMBATH, JACEK KORCHOWIEC, SHIRO KOSEKI,
     KAROL KOWALSKI, JIMMY KROMANN, STANISLAW KUCHARSKI,
     HENRY KURTZ, SAROM SOK LEANG, HUI LI, SHUHUA LI, WEI LI,
     JESSE LUTZ, ALEKSANDR O. LYKHIN, MARCIN MAKOWSKI,
     JOANI MATO, NIKITA MATSUNAGA, BENEDETTA MENNUCCI,
     GRANT MERRILL, NORIYUKI MINEZAWA, VLADIMIR MIRONOV,
     EISAKU MIYOSHI, JOHN A. MONTGOMERY JR., HIROTOSHI MORI,
     JONATHAN MULLIN, MONIKA MUSIAL, SHIGERU NAGASE,
     TAKESHI NAGATA, HIROMI NAKAI, TAKAHITO NAKAJIMA,
     YUYA NAKAJIMA, HARUYUKI NAKANO, HIROYA NAKATA, SEAN NEDD,
     HEATHER NETZLOFF, KIET A. NGUYEN, YOSHIO NISHIMOTO,
     BOSILJKA NJEGIC, RYAN OLSON, MIKE PAK, ROBERTO PEVERATI,
     BUU PHAM, PIOTR PIECUCH, ANNA POMOGAEVA, DAVID POOLE,
     SPENCER PRUITT, OLIVIER QUINET, LUKE ROSKOP,
     KLAUS RUEDENBERG, ANDREW SAND, TOSAPORN SATTASATHUCHANA,
     NOZOMI SAWADA, MICHAEL W. SCHMIDT, PATRICK E. SCHNEIDER,
     JUNJI SEINO, PRACHI SHARMA, JUN SHEN, JIM SHOEMAKER,
     YINAN SHU, DEJUN SI, JONATHAN SKONE, LYUDMILA SLIPCHENKO,
     TONY SMITH, JIE SONG, MARK SPACKMAN, CASPER STEINMANN,
     WALT STEVENS, PEIFENG SU, SHUJUN SU, CHET SWALINA,
     TETSUYA TAKETSUGU, ZHEN TAO, NANDUN THELLAMUREGE
     SEIKEN TOKURA, JACOPO TOMASI, TSUGUKI TOUMA, TAKAO TSUNEDA,
     HIROAKI UMEDA, JORGE LUIS GALVEZ VALLEJO, YALI WANG,
     SIMON WEBB, AARON WEST, THERESA L. WINDUS, MARTA WLOCH,
     PENG XU, KIYOSHI YAGI, SUSUMU YANAGISAWA, YANG YANG,
     SOOHAENG YOO, TAKESHI YOSHIKAWA, FEDERICO ZAHARIEV,
     TOBY ZENG

  WHO ARE SUPPORTED BY THEIR INSTITUTION/UNIVERSITY/COMPANY/GROUP
  (IN ALPHABETICAL ORDER):

     EP ANALYTICS, FACULTES UNIVERSITAIRES NOTRE-DAME DE LA PAIX,
     INSTITUTE FOR MOLECULAR SCIENCE, IOWA STATE UNIVERSITY,
     JACKSON STATE UNIVERSITY, JOHANNES KEPLER UNIVERSITY LINZ,
     KYUSHU UNIVERSITY, MICHIGAN STATE UNIVERSITY,
     MIE UNIVERSITY, MOSCOW STATE UNIVERSITY,
     N. COPERNICUS UNIVERSITY, NAGOYA UNIVERSITY,
     NANJING UNIVERSITY, NAT. INST. OF ADVANCED INDUSTRIAL
     SCIENCE AND TECHNOLOGY, NATIONAL INST. OF STANDARDS AND
     TECHNOLOGY, NESMEYANOV INSTITUTE OF ORGANOELEMENT COMPOUNDS
     OF RUSSIAN ACADEMY OF SCIENCES, OSAKA PREFECTURE UNIVERSITY,
     PENNSYLVANIA STATE UNIVERSITY, TOKYO INSTITUTE OF TECHNOLOGY,
     UNIVERSITY OF AARHUS, UNIVERSITY OF ALBERTA,
     UNIVERSITY OF CALIFORNIA AT SANTA BARBARA,
     UNIVERSITY OF COPENHAGEN, UNIVERSITY OF IOWA,
     UNIVERSITY OF MEMPHIS, UNIVERSITY OF MINNESOTA,
     UNIVERSITY OF NEBRASKA, UNIVERSITY OF NEW ENGLAND,
     UNIVERSITY OF NOTRE DAME, UNIVERSITY OF PISA,
     UNIVERSITY OF SILESIA, UNIVERSITY OF TOKYO,
     UNIVERSITY OF ZURICH, WASEDA UNIVERSITY, YALE UNIVERSITY

  GAMESS SOFTWARE MANAGEMENT TEAM FOR THIS RELEASE:
     MARK S. GORDON (TEAM LEAD),
     BRETT BODE (SENIOR ADVISOR),
     GIUSEPPE BARCA,
     COLLEEN BERTONI,
     KRISTOPHER KEIPERT (ADVISOR),
     SAROM S. LEANG (DEVELOPMENT LEAD),
     BUU PHAM,
     JORGE LUIS GALVEZ VALLEJO (WEBSITE ADMINISTRATOR),
     PENG XU

 EXECUTION OF GAMESS BEGUN 11:30:47 23-JUN-2021    

            ECHO OF THE FIRST FEW INPUT CARDS -
 INPUT CARD>! Assignment 1 from Dr Gordon                                                   
 INPUT CARD>! Optimize NH3 geometry with HF, and 6-31G(d) basis set                         
 INPUT CARD>! use C2v symmetry                                                              
 INPUT CARD>!                                                                               
 INPUT CARD> $CONTRL SCFTYP=RHF RUNTYP=OPTIMIZE $END                                        
 INPUT CARD> $BASIS  GBASIS=N31 NGAUSS=6 NDFUNC=1 $END                                      
 INPUT CARD> $DATA                                                                          
 INPUT CARD>6-31G(d) - NH3                                                                  
 INPUT CARD>Cnv      3                                                                      
 INPUT CARD>                                                                                
 INPUT CARD>N 7.0 .0000000000 .0000000000 -.1592817187                                      
 INPUT CARD>H 1.0 .7581807764 .0000000000 .4764258594                                       
 INPUT CARD> $END                                                                           
    1000000 WORDS OF MEMORY AVAILABLE

     BASIS OPTIONS
     -------------
     GBASIS=N31          IGAUSS=       6      POLAR=POPN31  
     NDFUNC=       1     NFFUNC=       0     DIFFSP=       F
     NPFUNC=       0      DIFFS=       F     BASNAM=        


     RUN TITLE
     ---------
 6-31G(d) - NH3                                                                  

 THE POINT GROUP OF THE MOLECULE IS CNV     
 THE ORDER OF THE PRINCIPAL AXIS IS     3

 ATOM      ATOMIC                      COORDINATES (BOHR)
           CHARGE         X                   Y                   Z
 N           7.0     0.0000000000        0.0000000000       -0.3009988032
 H           1.0    -0.7163769583        1.2408012891        0.9003143277
 H           1.0    -0.7163769583       -1.2408012891        0.9003143277
 H           1.0     1.4327539166        0.0000000000        0.9003143277

          INTERNUCLEAR DISTANCES (ANGS.)
          ------------------------------

                1 N          2 H          3 H          4 H     

   1 N       0.0000000    0.9894252 *  0.9894252 *  0.9894252 *
   2 H       0.9894252 *  0.0000000    1.3132076 *  1.3132076 *
   3 H       0.9894252 *  1.3132076 *  0.0000000    1.3132076 *
   4 H       0.9894252 *  1.3132076 *  1.3132076 *  0.0000000  

  * ... LESS THAN  3.000


     ATOMIC BASIS SET
     ----------------
 THE CONTRACTED PRIMITIVE FUNCTIONS HAVE BEEN UNNORMALIZED
 THE CONTRACTED BASIS FUNCTIONS ARE NOW NORMALIZED TO UNITY

  SHELL TYPE  PRIMITIVE        EXPONENT          CONTRACTION COEFFICIENT(S)

 N         

      1   S       1          4173.5114600    0.001834772160
      1   S       2           627.4579110    0.013994627002
      1   S       3           142.9020930    0.068586551812
      1   S       4            40.2343293    0.232240873040
      1   S       5            12.8202129    0.469069948082
      1   S       6             4.3904370    0.360455199063

      2   L       7            11.6263619   -0.114961181702    0.067579743878
      2   L       8             2.7162798   -0.169117478561    0.323907295893
      2   L       9             0.7722184    1.145851947027    0.740895139755

      3   L      10             0.2120315    1.000000000000    1.000000000000

      4   D      11             0.8000000    1.000000000000

 H         

      9   S      12            18.7311370    0.033494604338
      9   S      13             2.8253944    0.234726953484
      9   S      14             0.6401217    0.813757326146

     10   S      15             0.1612778    1.000000000000

 TOTAL NUMBER OF BASIS SET SHELLS             =   10
 NUMBER OF CARTESIAN GAUSSIAN BASIS FUNCTIONS =   21
 NUMBER OF ELECTRONS                          =   10
 CHARGE OF MOLECULE                           =    0
 SPIN MULTIPLICITY                            =    1
 NUMBER OF OCCUPIED ORBITALS (ALPHA)          =    5
 NUMBER OF OCCUPIED ORBITALS (BETA )          =    5
 TOTAL NUMBER OF ATOMS                        =    4
 THE NUCLEAR REPULSION ENERGY IS       12.4403893239

     $CONTRL OPTIONS
     ---------------
 SCFTYP=RHF          RUNTYP=OPTIMIZE     EXETYP=RUN     
 MPLEVL=       0     CITYP =NONE         CCTYP =NONE         VBTYP =NONE    
 DFTTYP=NONE         TDDFT =NONE    
 MULT  =       1     ICHARG=       0     NZVAR =       0     COORD =UNIQUE  
 PP    =NONE         RELWFN=NONE         LOCAL =NONE         NUMGRD=       F
 ISPHER=      -1     NOSYM =       0     MAXIT =      30     UNITS =ANGS    
 PLTORB=       F     MOLPLT=       F     AIMPAC=       F     FRIEND=        
 NPRINT=       7     IREST =       0     GEOM  =INPUT   
 NORMF =       0     NORMP =       0     ITOL  =      20     ICUT  =       9
 INTTYP=BEST         GRDTYP=BEST         QMTTOL= 1.0E-06

     $SYSTEM OPTIONS
     ---------------
  REPLICATED MEMORY=     1000000 WORDS (ON EVERY NODE).
 DISTRIBUTED MEMDDI=           0 MILLION WORDS IN AGGREGATE,
 MEMDDI DISTRIBUTED OVER   1 PROCESSORS IS           0 WORDS/PROCESSOR.
 TOTAL MEMORY REQUESTED ON EACH PROCESSOR=     1000000 WORDS.
 TIMLIM=      525600.00 MINUTES, OR     365.0 DAYS.
 PARALL= F  BALTYP=  DLB     KDIAG=    0  COREFL= F
 MXSEQ2=     300 MXSEQ3=     150  mem10=         0  mem22=         0

 Using Gaussians for PCM contribution to MEP, params: 0.10000E+01 0.10000E-07

          ----------------
          PROPERTIES INPUT
          ----------------

     MOMENTS            FIELD           POTENTIAL          DENSITY
 IEMOM =       1   IEFLD =       0   IEPOT =       0   IEDEN =       0
 WHERE =COMASS     WHERE =NUCLEI     WHERE =NUCLEI     WHERE =NUCLEI  
 OUTPUT=BOTH       OUTPUT=BOTH       OUTPUT=BOTH       OUTPUT=BOTH    
 IEMINT=       0   IEFINT=       0                     IEDINT=       0
                                                       MORB  =       0
          EXTRAPOLATION IN EFFECT
          DIIS IN EFFECT
 ORBITAL PRINTING OPTION: NPREO=     1    21     2     1

     -------------------------------
     INTEGRAL TRANSFORMATION OPTIONS
     -------------------------------
     NWORD  =            0
     CUTOFF = 1.0E-09     MPTRAN =       0
     DIRTRF =       F     AOINTS =DUP     

          ----------------------
          INTEGRAL INPUT OPTIONS
          ----------------------
 NOPK  =       1 NORDER=       0 SCHWRZ=       F

     ------------------------------------------
     THE POINT GROUP IS CNV, NAXIS= 3, ORDER= 6
     ------------------------------------------

     DIMENSIONS OF THE SYMMETRY SUBSPACES ARE
 A1  =    9     A2  =    0     E   =    6

 ..... DONE SETTING UP THE RUN .....
 STEP CPU TIME =     0.00 TOTAL CPU TIME =          0.0 (      0.0 MIN)
 TOTAL WALL CLOCK TIME=          0.0 SECONDS, CPU UTILIZATION IS    96.35%


          -----------------------------
          STATIONARY POINT LOCATION RUN
          -----------------------------

 OBTAINING INITIAL HESSIAN, HESS=GUESS   
 CARTESIAN COORDINATE OPTIMIZATION USING BADGER'S RULE FORCE CONSTANT GUESS

          PARAMETERS CONTROLLING GEOMETRY SEARCH ARE
          METHOD =QA                  UPHESS =BFGS    
          NNEG   =         0          NFRZ   =         0
          NSTEP  =        50          IFOLOW =         1
          HESS   =GUESS               RESTAR =         F
          IHREP  =         0          HSSEND =         F
          NPRT   =         0          NPUN   =         0
          OPTTOL = 1.000E-04          RMIN   = 1.500E-03
          RMAX   = 1.000E-01          RLIM   = 7.000E-02
          DXMAX  = 3.000E-01          PURIFY =         F
          MOVIE  =         F          TRUPD  =         T
          TRMAX  = 5.000E-01          TRMIN  = 5.000E-02
          ITBMAT =         5          STPT   =         F
          STSTEP = 1.000E-02          PROJCT=          T

 BEGINNING GEOMETRY SEARCH POINT NSERCH=   0 ...

 COORDINATES OF SYMMETRY UNIQUE ATOMS (ANGS)
   ATOM   CHARGE       X              Y              Z
 ------------------------------------------------------------
 N           7.0   0.0000000000   0.0000000000  -0.1592817187
 H           1.0   0.7581807764   0.0000000000   0.4764258594
 COORDINATES OF ALL ATOMS ARE (ANGS)
   ATOM   CHARGE       X              Y              Z
 ------------------------------------------------------------
 N           7.0   0.0000000000   0.0000000000  -0.1592817187
 H           1.0  -0.3790903882   0.6566038130   0.4764258594
 H           1.0  -0.3790903882  -0.6566038130   0.4764258594
 H           1.0   0.7581807764   0.0000000000   0.4764258594

          ********************
          1 ELECTRON INTEGRALS
          ********************
 ...... END OF ONE-ELECTRON INTEGRALS ......
 STEP CPU TIME =     0.00 TOTAL CPU TIME =          0.0 (      0.0 MIN)
 TOTAL WALL CLOCK TIME=          0.0 SECONDS, CPU UTILIZATION IS    96.65%

          -------------
          GUESS OPTIONS
          -------------
          GUESS =HUCKEL            NORB  =       0          NORDER=       0
          MIX   =       F          PRTMO =       F          PUNMO =       F
          TOLZ  = 1.0E-08          TOLE  = 1.0E-05
          SYMDEN=       F          PURIFY=       F

 INITIAL GUESS ORBITALS GENERATED BY HUCKEL   ROUTINE.
 HUCKEL GUESS REQUIRES      6369 WORDS.

 SYMMETRIES FOR INITIAL GUESS ORBITALS FOLLOW.   BOTH SET(S).
     5 ORBITALS ARE OCCUPIED (    1 CORE ORBITALS).
     2=A1       3=E        4=E        5=A1       6=E        7=E        8=A1  
     9=A1      10=A1      11=A1      12=A1      13=A1      14=E       15=E   
 ...... END OF INITIAL ORBITAL SELECTION ......
 STEP CPU TIME =     0.00 TOTAL CPU TIME =          0.0 (      0.0 MIN)
 TOTAL WALL CLOCK TIME=          0.0 SECONDS, CPU UTILIZATION IS    96.96%

                    ----------------------
                    AO INTEGRAL TECHNOLOGY
                    ----------------------
     S,P,L SHELL ROTATED AXIS INTEGRALS, REPROGRAMMED BY
        KAZUYA ISHIMURA (IMS) AND JOSE SIERRA (SYNSTAR).
     S,P,D,L SHELL ROTATED AXIS INTEGRALS PROGRAMMED BY
        KAZUYA ISHIMURA (INSTITUTE FOR MOLECULAR SCIENCE).
     S,P,D,F,G SHELL TO TOTAL QUARTET ANGULAR MOMENTUM SUM 5,
        ERIC PROGRAM BY GRAHAM FLETCHER (ELORET AND NASA ADVANCED
        SUPERCOMPUTING DIVISION, AMES RESEARCH CENTER).
     S,P,D,F,G,L SHELL GENERAL RYS QUADRATURE PROGRAMMED BY
        MICHEL DUPUIS (PACIFIC NORTHWEST NATIONAL LABORATORY).

          --------------------
          2 ELECTRON INTEGRALS
          --------------------

 THE -PK- OPTION IS OFF, THE INTEGRALS ARE NOT IN SUPERMATRIX FORM.
 STORING   15000 INTEGRALS/RECORD ON DISK, USING 12 BYTES/INTEGRAL.
 TWO ELECTRON INTEGRAL EVALUATION REQUIRES   90451 WORDS OF MEMORY.
 II,JST,KST,LST =  1  1  1  1 NREC =         1 INTLOC =    1
 II,JST,KST,LST =  2  1  1  1 NREC =         1 INTLOC =    2
 II,JST,KST,LST =  3  1  1  1 NREC =         1 INTLOC =   34
 II,JST,KST,LST =  4  1  1  1 NREC =         1 INTLOC =  214
 II,JST,KST,LST =  5  1  1  1 NREC =         1 INTLOC = 1189
 II,JST,KST,LST =  6  1  1  1 NREC =         1 INTLOC = 1189
 II,JST,KST,LST =  7  1  1  1 NREC =         1 INTLOC = 1189
 II,JST,KST,LST =  8  1  1  1 NREC =         1 INTLOC = 1189
 II,JST,KST,LST =  9  1  1  1 NREC =         1 INTLOC = 1189
 II,JST,KST,LST = 10  1  1  1 NREC =         1 INTLOC = 2682
 TOTAL NUMBER OF NONZERO TWO-ELECTRON INTEGRALS =                5020
          1 INTEGRAL RECORDS WERE STORED ON DISK FILE  8.
  ...... END OF TWO-ELECTRON INTEGRALS .....
 STEP CPU TIME =     0.01 TOTAL CPU TIME =          0.0 (      0.0 MIN)
 TOTAL WALL CLOCK TIME=          0.0 SECONDS, CPU UTILIZATION IS    98.59%

          --------------------------
                 RHF SCF CALCULATION
          --------------------------

     NUCLEAR ENERGY =        12.4403893239
     MAXIT =   30     NPUNCH=    2
     EXTRAP=T  DAMP=F  SHIFT=F  RSTRCT=F  DIIS=T  DEM=F  SOSCF=F
     DENSITY MATRIX CONV=  1.00E-05
     MEMORY REQUIRED FOR RHF ITERS=     34046 WORDS.

 ITER EX DEM     TOTAL ENERGY        E CHANGE  DENSITY CHANGE    DIIS ERROR
   1  0  0      -55.8751774660   -55.8751774660   0.293490329   0.764942975
          * * *   INITIATING DIIS PROCEDURE   * * *
   2  1  0      -56.1267535393    -0.2515760733   0.066710993   0.086258468
   3  2  0      -56.1373399426    -0.0105864033   0.040027979   0.028479983
   4  3  0      -56.1385716112    -0.0012316686   0.011473005   0.010489435
   5  4  0      -56.1388164524    -0.0002448412   0.003745463   0.002124001
   6  5  0      -56.1388270033    -0.0000105509   0.001881035   0.000692149
   7  6  0      -56.1388284814    -0.0000014781   0.000360036   0.000089859
   8  7  0      -56.1388285080    -0.0000000266   0.000005812   0.000003385
   9  8  0      -56.1388285080    -0.0000000000   0.000001123   0.000000904
  10  9  0      -56.1388285080    -0.0000000000   0.000000068   0.000000048

          -----------------
          DENSITY CONVERGED
          -----------------
     TIME TO FORM FOCK OPERATORS=       0.0 SECONDS (       0.0 SEC/ITER)
     TIME TO SOLVE SCF EQUATIONS=       0.0 SECONDS (       0.0 SEC/ITER)

 FINAL RHF ENERGY IS      -56.1388285080 AFTER  10 ITERATIONS

          ------------
          EIGENVECTORS
          ------------

                      1          2          3          4          5
                  -15.5507    -1.2099    -0.5946    -0.5946    -0.4968
                     A1         A1         E          E          A1  
    1  N  1  S    0.995030  -0.187106  -0.000000  -0.000000   0.104182
    2  N  1  S    0.024755   0.391259  -0.000000  -0.000000  -0.236055
    3  N  1  X   -0.000000   0.000000   0.485544  -0.000000  -0.000000
    4  N  1  Y   -0.000000   0.000000  -0.000000   0.485544  -0.000000
    5  N  1  Z    0.002188   0.153746  -0.000000  -0.000000   0.498202
    6  N  1  S   -0.002288   0.381517  -0.000000  -0.000000  -0.437395
    7  N  1  X   -0.000000   0.000000   0.283026  -0.000000  -0.000000
    8  N  1  Y   -0.000000   0.000000  -0.000000   0.283026  -0.000000
    9  N  1  Z   -0.001539   0.073438  -0.000000  -0.000000   0.386174
   10  N  1 XX   -0.003384   0.003147   0.013435  -0.000000  -0.012471
   11  N  1 YY   -0.003384   0.003147  -0.013435  -0.000000  -0.012471
   12  N  1 ZZ   -0.003225   0.027087  -0.000000  -0.000000   0.054070
   13  N  1 XY   -0.000000   0.000000  -0.000000  -0.015514  -0.000000
   14  N  1 XZ   -0.000000   0.000000   0.060026  -0.000000  -0.000000
   15  N  1 YZ   -0.000000   0.000000  -0.000000   0.060026  -0.000000
   16  H  2  S    0.000210   0.150916  -0.134908   0.233667   0.093265
   17  H  2  S    0.000758   0.008407  -0.110172   0.190824   0.066566
   18  H  3  S    0.000210   0.150916  -0.134908  -0.233667   0.093265
   19  H  3  S    0.000758   0.008407  -0.110172  -0.190824   0.066566
   20  H  4  S    0.000210   0.150916   0.269816  -0.000000   0.093265
   21  H  4  S    0.000758   0.008407   0.220344  -0.000000   0.066566

                      6          7          8          9         10
                    0.2023     0.3188     0.3188     0.8494     0.8494
                     A1         E          E          E          E   
    1  N  1  S   -0.108437  -0.000000   0.000000   0.000000   0.000000
    2  N  1  S    0.057171  -0.000000   0.000000   0.000000   0.000000
    3  N  1  X    0.000000  -0.343838   0.000000  -0.345975   0.000000
    4  N  1  Y    0.000000  -0.000000   0.343838   0.000000  -0.345975
    5  N  1  Z    0.211672  -0.000000   0.000000   0.000000   0.000000
    6  N  1  S    1.925824  -0.000000   0.000000   0.000000   0.000000
    7  N  1  X    0.000000  -1.015468   0.000000   0.959666   0.000000
    8  N  1  Y    0.000000  -0.000000   1.015468   0.000000   0.959666
    9  N  1  Z    0.783347  -0.000000   0.000000   0.000000   0.000000
   10  N  1 XX   -0.047002   0.003447   0.000000  -0.069437   0.000000
   11  N  1 YY   -0.047002  -0.003447   0.000000   0.069437   0.000000
   12  N  1 ZZ   -0.016263  -0.000000   0.000000   0.000000   0.000000
   13  N  1 XY    0.000000  -0.000000   0.003980   0.000000   0.080179
   14  N  1 XZ    0.000000  -0.016932   0.000000  -0.112065   0.000000
   15  N  1 YZ    0.000000  -0.000000   0.016932   0.000000  -0.112065
   16  H  2  S   -0.015443  -0.036480  -0.063186   0.383930  -0.664986
   17  H  2  S   -0.947657  -0.941361  -1.630485  -0.158368   0.274301
   18  H  3  S   -0.015443  -0.036480   0.063186   0.383930   0.664986
   19  H  3  S   -0.947657  -0.941361   1.630485  -0.158368  -0.274301
   20  H  4  S   -0.015443   0.072961   0.000000  -0.767859   0.000000
   21  H  4  S   -0.947657   1.882722   0.000000   0.316736   0.000000

                     11         12         13         14         15
                    0.9623     1.2085     1.2085     1.2471     1.8317
                     A1         E          E          A1         A1  
    1  N  1  S   -0.016772  -0.000000   0.000000  -0.012180  -0.097613
    2  N  1  S    0.456669  -0.000000   0.000000  -1.418283  -0.654177
    3  N  1  X    0.000000   1.008404   0.000000  -0.000000  -0.000000
    4  N  1  Y    0.000000  -0.000000  -1.008404  -0.000000  -0.000000
    5  N  1  Z   -0.886014  -0.000000   0.000000  -0.589265   0.077299
    6  N  1  S   -0.445926  -0.000000   0.000000   3.202726   2.494139
    7  N  1  X    0.000000  -1.298580   0.000000  -0.000000  -0.000000
    8  N  1  Y    0.000000  -0.000000   1.298580  -0.000000  -0.000000
    9  N  1  Z    1.106349  -0.000000   0.000000   0.928513   1.131997
   10  N  1 XX    0.129116  -0.065617   0.000000  -0.253633   0.219562
   11  N  1 YY    0.129116   0.065617   0.000000  -0.253633   0.219562
   12  N  1 ZZ    0.118682  -0.000000   0.000000  -0.248331  -0.821769
   13  N  1 XY    0.000000  -0.000000  -0.075768  -0.000000  -0.000000
   14  N  1 XZ    0.000000  -0.107627   0.000000  -0.000000  -0.000000
   15  N  1 YZ    0.000000  -0.000000   0.107627  -0.000000  -0.000000
   16  H  2  S   -0.107277   0.278567   0.482493   0.295258  -0.649806
   17  H  2  S   -0.070741  -0.729996  -1.264391  -0.860742  -0.371111
   18  H  3  S   -0.107277   0.278567  -0.482493   0.295258  -0.649806
   19  H  3  S   -0.070741  -0.729996   1.264391  -0.860742  -0.371111
   20  H  4  S   -0.107277  -0.557135   0.000000   0.295258  -0.649806
   21  H  4  S   -0.070741   1.459993   0.000000  -0.860742  -0.371111

                     16         17         18         19         20
                    1.9582     1.9582     2.1455     2.7187     2.7187
                     E          E          A1         E          E   
    1  N  1  S   -0.000000   0.000000  -0.123054  -0.000000  -0.000000
    2  N  1  S   -0.000000   0.000000  -0.802273  -0.000000  -0.000000
    3  N  1  X    0.016737   0.000000   0.000000   0.096225  -0.000000
    4  N  1  Y   -0.000000  -0.016737   0.000000  -0.000000   0.096225
    5  N  1  Z   -0.000000   0.000000   0.033573  -0.000000  -0.000000
    6  N  1  S   -0.000000   0.000000   3.140422  -0.000000  -0.000000
    7  N  1  X    0.006421   0.000000   0.000000   0.436545  -0.000000
    8  N  1  Y   -0.000000  -0.006421   0.000000  -0.000000   0.436545
    9  N  1  Z   -0.000000   0.000000   1.451745  -0.000000  -0.000000
   10  N  1 XX    0.731683   0.000000  -0.507878   0.554726  -0.000000
   11  N  1 YY   -0.731683   0.000000  -0.507878  -0.554726  -0.000000
   12  N  1 ZZ   -0.000000   0.000000   0.598735  -0.000000  -0.000000
   13  N  1 XY   -0.000000   0.844875   0.000000  -0.000000  -0.640542
   14  N  1 XZ   -0.534595   0.000000   0.000000   1.034467  -0.000000
   15  N  1 YZ   -0.000000   0.534595   0.000000  -0.000000   1.034467
   16  H  2  S   -0.003914  -0.006780  -0.883556   0.451642  -0.782268
   17  H  2  S    0.001696   0.002938  -0.469872  -0.064642   0.111963
   18  H  3  S   -0.003914   0.006780  -0.883556   0.451642   0.782268
   19  H  3  S    0.001696  -0.002938  -0.469872  -0.064642  -0.111963
   20  H  4  S    0.007828   0.000000  -0.883556  -0.903285  -0.000000
   21  H  4  S   -0.003393   0.000000  -0.469872   0.129284  -0.000000

                     21
                    4.0166
                     A1  
    1  N  1  S   -0.459362
    2  N  1  S    1.215958
    3  N  1  X    0.000000
    4  N  1  Y    0.000000
    5  N  1  Z   -0.150423
    6  N  1  S    3.035764
    7  N  1  X    0.000000
    8  N  1  Y    0.000000
    9  N  1  Z    0.509950
   10  N  1 XX   -1.488679
   11  N  1 YY   -1.488679
   12  N  1 ZZ   -1.480675
   13  N  1 XY    0.000000
   14  N  1 XZ    0.000000
   15  N  1 YZ    0.000000
   16  H  2  S    0.107638
   17  H  2  S   -0.506160
   18  H  3  S    0.107638
   19  H  3  S   -0.506160
   20  H  4  S    0.107638
   21  H  4  S   -0.506160
 ...... END OF RHF CALCULATION ......
 STEP CPU TIME =     0.00 TOTAL CPU TIME =          0.0 (      0.0 MIN)
 TOTAL WALL CLOCK TIME=          0.0 SECONDS, CPU UTILIZATION IS    98.82%

     ----------------------------------------------------------------
     PROPERTY VALUES FOR THE RHF   SELF-CONSISTENT FIELD WAVEFUNCTION
     ----------------------------------------------------------------

          -----------------
          ENERGY COMPONENTS
          -----------------

         WAVEFUNCTION NORMALIZATION =       1.0000000000

                ONE ELECTRON ENERGY =    -100.2651068086
                TWO ELECTRON ENERGY =      31.6858889766
           NUCLEAR REPULSION ENERGY =      12.4403893239
                                      ------------------
                       TOTAL ENERGY =     -56.1388285080

 ELECTRON-ELECTRON POTENTIAL ENERGY =      31.6858889766
  NUCLEUS-ELECTRON POTENTIAL ENERGY =    -156.5677907210
   NUCLEUS-NUCLEUS POTENTIAL ENERGY =      12.4403893239
                                      ------------------
             TOTAL POTENTIAL ENERGY =    -112.4415124204
               TOTAL KINETIC ENERGY =      56.3026839124
                 VIRIAL RATIO (V/T) =       1.9970897408

          ---------------------------------------
          MULLIKEN AND LOWDIN POPULATION ANALYSES
          ---------------------------------------

     ATOMIC MULLIKEN POPULATION IN EACH MOLECULAR ORBITAL

                      1          2          3          4          5

                  2.000000   2.000000   2.000000   2.000000   2.000000

    1             1.999546   1.490434   1.270847   1.270847   1.858203
    2             0.000151   0.169855   0.121526   0.364577   0.047266
    3             0.000151   0.169855   0.121526   0.364577   0.047266
    4             0.000151   0.169855   0.486102   0.000000   0.047266

               ----- POPULATIONS IN EACH AO -----
                             MULLIKEN      LOWDIN
              1  N  1  S      1.99585     1.98019
              2  N  1  S      0.81489     0.56272
              3  N  1  X      0.76524     0.70800
              4  N  1  Y      0.76524     0.70814
              5  N  1  Z      0.87306     0.82572
              6  N  1  S      0.95530     0.46061
              7  N  1  X      0.47693     0.58044
              8  N  1  Y      0.47693     0.58080
              9  N  1  Z      0.67563     0.73786
             10  N  1 XX      0.01225     0.19204
             11  N  1 YY      0.01225     0.19204
             12  N  1 ZZ      0.01223     0.18714
             13  N  1 XY      0.00328     0.00575
             14  N  1 XZ      0.02539     0.03063
             15  N  1 YZ      0.02539     0.03070
             16  H  2  S      0.51699     0.47990
             17  H  2  S      0.18638     0.25894
             18  H  3  S      0.51699     0.47990
             19  H  3  S      0.18638     0.25894
             20  H  4  S      0.51699     0.48058
             21  H  4  S      0.18638     0.25898

          ----- MULLIKEN ATOMIC OVERLAP POPULATIONS -----
          (OFF-DIAGONAL ELEMENTS NEED TO BE MULTIPLIED BY 2)

             1           2           3           4

    1    6.9453899
    2    0.3148292   0.4908932
    3    0.3148292  -0.0511741   0.4908932
    4    0.3148292  -0.0511741  -0.0511741   0.4908932

          TOTAL MULLIKEN AND LOWDIN ATOMIC POPULATIONS
       ATOM         MULL.POP.    CHARGE          LOW.POP.     CHARGE
    1 N             7.889878   -0.889878         7.782764   -0.782764
    2 H             0.703374    0.296626         0.738836    0.261164
    3 H             0.703374    0.296626         0.738836    0.261164
    4 H             0.703374    0.296626         0.739564    0.260436

          -------------------------------
          BOND ORDER AND VALENCE ANALYSIS     BOND ORDER THRESHOLD=0.050
          -------------------------------

                   BOND                       BOND                       BOND
  ATOM PAIR DIST  ORDER      ATOM PAIR DIST  ORDER      ATOM PAIR DIST  ORDER
    1   2  0.989  0.886        1   3  0.989  0.886        1   4  0.989  0.886

                       TOTAL       BONDED        FREE
      ATOM            VALENCE     VALENCE     VALENCE
    1 N                 2.658       2.658      -0.000
    2 H                 0.852       0.852      -0.000
    3 H                 0.852       0.852      -0.000
    4 H                 0.852       0.852      -0.000

          ---------------------
          ELECTROSTATIC MOMENTS
          ---------------------

 POINT   1           X           Y           Z (BOHR)    CHARGE
                -0.000000    0.000000   -0.087677       -0.00 (A.U.)
         DX          DY          DZ         /D/  (DEBYE)
    -0.000000    0.000000    2.770583    2.770583
 ...... END OF PROPERTY EVALUATION ......
 STEP CPU TIME =     0.00 TOTAL CPU TIME =          0.0 (      0.0 MIN)
 TOTAL WALL CLOCK TIME=          0.0 SECONDS, CPU UTILIZATION IS    98.93%

 BEGINNING ONE ELECTRON GRADIENT...
 ..... END OF 1-ELECTRON GRADIENT ......
 STEP CPU TIME =     0.00 TOTAL CPU TIME =          0.0 (      0.0 MIN)
 TOTAL WALL CLOCK TIME=          0.0 SECONDS, CPU UTILIZATION IS    98.97%

          ----------------------
          GRADIENT OF THE ENERGY
          ----------------------

 THE MINIMUM MEMORY REQUIRED FOR THIS RUN IS      72392 WORDS.
 USING     999136 WORDS FOR 2E- DERIVATIVE INTEGRAL CONTRIBUTIONS.
 THE COARSE/FINE SCHWARZ SCREENINGS SKIPPED            0/           0 BLOCKS.
 THE NUMBER OF GRADIENT INTEGRAL BLOCKS COMPUTED WAS       360
 ...... END OF 2-ELECTRON GRADIENT ......
 STEP CPU TIME =     0.00 TOTAL CPU TIME =          0.0 (      0.0 MIN)
 TOTAL WALL CLOCK TIME=          0.0 SECONDS, CPU UTILIZATION IS    99.04%

          NSERCH=  0     ENERGY=     -56.1388285

                                 -----------------------
                                 GRADIENT (HARTREE/BOHR)
                                 -----------------------
        ATOM     ZNUC       DE/DX         DE/DY         DE/DZ
 --------------------------------------------------------------
    1  N            7.0     0.0000000     0.0000000    -0.0600677
    2  H            1.0     0.0335012    -0.0580257     0.0200226
    3  H            1.0     0.0335012     0.0580257     0.0200226
    4  H            1.0    -0.0670023     0.0000000     0.0200226

          MAXIMUM GRADIENT = 0.0670023    RMS GRADIENT = 0.0390286

 NSERCH:   0  E=      -56.1388285080  GRAD. MAX=  0.0670023  R.M.S.=  0.0390286

          FORCE CONSTANT MATRIX NOT UPDATED --- TAKING FIRST STEP
          MIN SEARCH, CORRECT HESSIAN, TRYING PURE NR STEP
               NR STEP HAS LENGTH         =   0.743770
          TRIM/QA LAMBDA FOR NON-TS MODES =  -0.26605923
          TRIM/QA STEP HAS LENGTH         =   0.300000
          RADIUS OF STEP TAKEN=   0.30000  CURRENT TRUST RADIUS=   0.30000

 BEGINNING GEOMETRY SEARCH POINT NSERCH=   1 ...

 COORDINATES OF SYMMETRY UNIQUE ATOMS (ANGS)
   ATOM   CHARGE       X              Y              Z
 ------------------------------------------------------------
 N           7.0  -0.0000000000  -0.0000000000  -0.0771581982
 H           1.0   0.8316886150   0.0000000000   0.4490513526
 COORDINATES OF ALL ATOMS ARE (ANGS)
   ATOM   CHARGE       X              Y              Z
 ------------------------------------------------------------
 N           7.0  -0.0000000000  -0.0000000000  -0.0771581982
 H           1.0  -0.4158443075   0.7202634686   0.4490513526
 H           1.0  -0.4158443075  -0.7202634686   0.4490513526
 H           1.0   0.8316886150   0.0000000000   0.4490513526

          INTERNUCLEAR DISTANCES (ANGS.)
          ------------------------------

                1 N          2 H          3 H          4 H     

   1 N       0.0000000    0.9841760 *  0.9841760 *  0.9841760 *
   2 H       0.9841760 *  0.0000000    1.4405269 *  1.4405269 *
   3 H       0.9841760 *  1.4405269 *  0.0000000    1.4405269 *
   4 H       0.9841760 *  1.4405269 *  1.4405269 *  0.0000000  

  * ... LESS THAN  3.000

 ...... END OF ONE-ELECTRON INTEGRALS ......
 STEP CPU TIME =     0.00 TOTAL CPU TIME =          0.0 (      0.0 MIN)
 TOTAL WALL CLOCK TIME=          0.0 SECONDS, CPU UTILIZATION IS    99.05%
 TOTAL NUMBER OF NONZERO TWO-ELECTRON INTEGRALS =                5020
          1 INTEGRAL RECORDS WERE STORED ON DISK FILE  8.
  ...... END OF TWO-ELECTRON INTEGRALS .....
 STEP CPU TIME =     0.00 TOTAL CPU TIME =          0.0 (      0.0 MIN)
 TOTAL WALL CLOCK TIME=          0.0 SECONDS, CPU UTILIZATION IS    99.10%

          --------------------------
                 RHF SCF CALCULATION
          --------------------------
     DENSITY MATRIX CONV=  2.00E-04

 ITER EX DEM     TOTAL ENERGY        E CHANGE  DENSITY CHANGE    DIIS ERROR
          * * *   INITIATING DIIS PROCEDURE   * * *
   1  0  0      -56.1645661304   -56.1645661304   0.077456683   0.064810049
   2  1  0      -56.1693262452    -0.0047601148   0.018687521   0.019978147
   3  2  0      -56.1696185015    -0.0002922563   0.004542903   0.006664268
   4  3  0      -56.1696667159    -0.0000482144   0.001310987   0.001159517
   5  4  0      -56.1696688532    -0.0000021373   0.000568197   0.000318112
   6  5  0      -56.1696690507    -0.0000001974   0.000220683   0.000062805
   7  6  0      -56.1696690621    -0.0000000114   0.000019480   0.000009656
   8  7  0      -56.1696690623    -0.0000000002   0.000001534   0.000000640

          -----------------
          DENSITY CONVERGED
          -----------------
     TIME TO FORM FOCK OPERATORS=       0.0 SECONDS (       0.0 SEC/ITER)
     TIME TO SOLVE SCF EQUATIONS=       0.0 SECONDS (       0.0 SEC/ITER)

 FINAL RHF ENERGY IS      -56.1696690623 AFTER   8 ITERATIONS
 ...... END OF RHF CALCULATION ......
 STEP CPU TIME =     0.00 TOTAL CPU TIME =          0.0 (      0.0 MIN)
 TOTAL WALL CLOCK TIME=          0.0 SECONDS, CPU UTILIZATION IS    99.15%
 ..... END OF 1-ELECTRON GRADIENT ......
 STEP CPU TIME =     0.00 TOTAL CPU TIME =          0.0 (      0.0 MIN)
 TOTAL WALL CLOCK TIME=          0.0 SECONDS, CPU UTILIZATION IS    99.18%
 ...... END OF 2-ELECTRON GRADIENT ......
 STEP CPU TIME =     0.00 TOTAL CPU TIME =          0.0 (      0.0 MIN)
 TOTAL WALL CLOCK TIME=          0.0 SECONDS, CPU UTILIZATION IS    99.22%

          NSERCH=  1     ENERGY=     -56.1696691

                                 -----------------------
                                 GRADIENT (HARTREE/BOHR)
                                 -----------------------
        ATOM     ZNUC       DE/DX         DE/DY         DE/DZ
 --------------------------------------------------------------
    1  N            7.0     0.0000000     0.0000000    -0.0210280
    2  H            1.0     0.0210034    -0.0363790     0.0070093
    3  H            1.0     0.0210034     0.0363790     0.0070093
    4  H            1.0    -0.0420068     0.0000000     0.0070093

          MAXIMUM GRADIENT = 0.0420068    RMS GRADIENT = 0.0221421

 NSERCH:   1  E=      -56.1696690623  GRAD. MAX=  0.0420068  R.M.S.=  0.0221421

          HESSIAN UPDATED USING THE BFGS FORMULA
             ACTUAL ENERGY CHANGE WAS  -0.0308405543
          PREDICTED ENERGY CHANGE WAS  -0.0321482110 RATIO=  0.959
          MIN SEARCH, CORRECT HESSIAN, TRYING PURE NR STEP
               NR STEP HAS LENGTH         =   0.363481
          RADIUS OF STEP TAKEN=   0.36348  CURRENT TRUST RADIUS=   0.50000

 BEGINNING GEOMETRY SEARCH POINT NSERCH=   2 ...

 COORDINATES OF SYMMETRY UNIQUE ATOMS (ANGS)
   ATOM   CHARGE       X              Y              Z
 ------------------------------------------------------------
 N           7.0  -0.0000000000  -0.0000000000   0.0069542415
 H           1.0   0.9275420809   0.0000000000   0.4210138727
 COORDINATES OF ALL ATOMS ARE (ANGS)
   ATOM   CHARGE       X              Y              Z
 ------------------------------------------------------------
 N           7.0  -0.0000000000  -0.0000000000   0.0069542415
 H           1.0  -0.4637710404   0.8032750051   0.4210138727
 H           1.0  -0.4637710404  -0.8032750051   0.4210138727
 H           1.0   0.9275420809   0.0000000000   0.4210138727

          INTERNUCLEAR DISTANCES (ANGS.)
          ------------------------------

                1 N          2 H          3 H          4 H     

   1 N       0.0000000    1.0157656 *  1.0157656 *  1.0157656 *
   2 H       1.0157656 *  0.0000000    1.6065500 *  1.6065500 *
   3 H       1.0157656 *  1.6065500 *  0.0000000    1.6065500 *
   4 H       1.0157656 *  1.6065500 *  1.6065500 *  0.0000000  

  * ... LESS THAN  3.000

 ...... END OF ONE-ELECTRON INTEGRALS ......
 STEP CPU TIME =     0.00 TOTAL CPU TIME =          0.0 (      0.0 MIN)
 TOTAL WALL CLOCK TIME=          0.0 SECONDS, CPU UTILIZATION IS    99.23%
 TOTAL NUMBER OF NONZERO TWO-ELECTRON INTEGRALS =                5020
          1 INTEGRAL RECORDS WERE STORED ON DISK FILE  8.
  ...... END OF TWO-ELECTRON INTEGRALS .....
 STEP CPU TIME =     0.00 TOTAL CPU TIME =          0.0 (      0.0 MIN)
 TOTAL WALL CLOCK TIME=          0.0 SECONDS, CPU UTILIZATION IS    99.26%

          --------------------------
                 RHF SCF CALCULATION
          --------------------------
     DENSITY MATRIX CONV=  2.00E-04

 ITER EX DEM     TOTAL ENERGY        E CHANGE  DENSITY CHANGE    DIIS ERROR
          * * *   INITIATING DIIS PROCEDURE   * * *
   1  0  0      -56.1783951929   -56.1783951929   0.038865985   0.064976709
   2  1  0      -56.1833483962    -0.0049532033   0.010044494   0.014313810
   3  2  0      -56.1835745049    -0.0002261087   0.004297067   0.004552180
   4  3  0      -56.1835983079    -0.0000238030   0.001510501   0.001100688
   5  4  0      -56.1836008804    -0.0000025725   0.000829507   0.000325476
   6  5  0      -56.1836012856    -0.0000004052   0.000219406   0.000078119
   7  6  0      -56.1836013030    -0.0000000174   0.000019551   0.000010596
   8  7  0      -56.1836013032    -0.0000000002   0.000002468   0.000001463

          -----------------
          DENSITY CONVERGED
          -----------------
     TIME TO FORM FOCK OPERATORS=       0.0 SECONDS (       0.0 SEC/ITER)
     TIME TO SOLVE SCF EQUATIONS=       0.0 SECONDS (       0.0 SEC/ITER)

 FINAL RHF ENERGY IS      -56.1836013032 AFTER   8 ITERATIONS
 ...... END OF RHF CALCULATION ......
 STEP CPU TIME =     0.00 TOTAL CPU TIME =          0.0 (      0.0 MIN)
 TOTAL WALL CLOCK TIME=          0.0 SECONDS, CPU UTILIZATION IS    99.30%
 ..... END OF 1-ELECTRON GRADIENT ......
 STEP CPU TIME =     0.00 TOTAL CPU TIME =          0.0 (      0.0 MIN)
 TOTAL WALL CLOCK TIME=          0.0 SECONDS, CPU UTILIZATION IS    99.32%
 ...... END OF 2-ELECTRON GRADIENT ......
 STEP CPU TIME =     0.00 TOTAL CPU TIME =          0.0 (      0.0 MIN)
 TOTAL WALL CLOCK TIME=          0.0 SECONDS, CPU UTILIZATION IS    99.33%

          NSERCH=  2     ENERGY=     -56.1836013

                                 -----------------------
                                 GRADIENT (HARTREE/BOHR)
                                 -----------------------
        ATOM     ZNUC       DE/DX         DE/DY         DE/DZ
 --------------------------------------------------------------
    1  N            7.0     0.0000000     0.0000000    -0.0209469
    2  H            1.0    -0.0036273     0.0062826     0.0069823
    3  H            1.0    -0.0036273    -0.0062826     0.0069823
    4  H            1.0     0.0072545     0.0000000     0.0069823

          MAXIMUM GRADIENT = 0.0209469    RMS GRADIENT = 0.0078683

 NSERCH:   2  E=      -56.1836013032  GRAD. MAX=  0.0209469  R.M.S.=  0.0078683

          HESSIAN UPDATED USING THE BFGS FORMULA
             ACTUAL ENERGY CHANGE WAS  -0.0139322409
          PREDICTED ENERGY CHANGE WAS  -0.0136417282 RATIO=  1.021
          MIN SEARCH, CORRECT HESSIAN, TRYING PURE NR STEP
               NR STEP HAS LENGTH         =   0.040086
          RADIUS OF STEP TAKEN=   0.04009  CURRENT TRUST RADIUS=   0.50000

 BEGINNING GEOMETRY SEARCH POINT NSERCH=   3 ...

 COORDINATES OF SYMMETRY UNIQUE ATOMS (ANGS)
   ATOM   CHARGE       X              Y              Z
 ------------------------------------------------------------
 N           7.0  -0.0000000000  -0.0000000000   0.0251328666
 H           1.0   0.9293089951   0.0000000000   0.4149543310
 COORDINATES OF ALL ATOMS ARE (ANGS)
   ATOM   CHARGE       X              Y              Z
 ------------------------------------------------------------
 N           7.0  -0.0000000000  -0.0000000000   0.0251328666
 H           1.0  -0.4646544976   0.8048051977   0.4149543310
 H           1.0  -0.4646544976  -0.8048051977   0.4149543310
 H           1.0   0.9293089951   0.0000000000   0.4149543310

          INTERNUCLEAR DISTANCES (ANGS.)
          ------------------------------

                1 N          2 H          3 H          4 H     

   1 N       0.0000000    1.0077579 *  1.0077579 *  1.0077579 *
   2 H       1.0077579 *  0.0000000    1.6096104 *  1.6096104 *
   3 H       1.0077579 *  1.6096104 *  0.0000000    1.6096104 *
   4 H       1.0077579 *  1.6096104 *  1.6096104 *  0.0000000  

  * ... LESS THAN  3.000

 ...... END OF ONE-ELECTRON INTEGRALS ......
 STEP CPU TIME =     0.00 TOTAL CPU TIME =          0.0 (      0.0 MIN)
 TOTAL WALL CLOCK TIME=          0.0 SECONDS, CPU UTILIZATION IS    99.34%
 TOTAL NUMBER OF NONZERO TWO-ELECTRON INTEGRALS =                5020
          1 INTEGRAL RECORDS WERE STORED ON DISK FILE  8.
  ...... END OF TWO-ELECTRON INTEGRALS .....
 STEP CPU TIME =     0.00 TOTAL CPU TIME =          0.0 (      0.0 MIN)
 TOTAL WALL CLOCK TIME=          0.0 SECONDS, CPU UTILIZATION IS    99.36%

          --------------------------
                 RHF SCF CALCULATION
          --------------------------
     DENSITY MATRIX CONV=  5.00E-05

 ITER EX DEM     TOTAL ENERGY        E CHANGE  DENSITY CHANGE    DIIS ERROR
          * * *   INITIATING DIIS PROCEDURE   * * *
   1  0  0      -56.1840114275   -56.1840114275   0.013410314   0.008931779
   2  1  0      -56.1841954447    -0.0001840172   0.004507168   0.004744871
   3  2  0      -56.1842161712    -0.0000207265   0.001829526   0.001493285
   4  3  0      -56.1842204114    -0.0000042402   0.000732771   0.000306894
   5  4  0      -56.1842207414    -0.0000003301   0.000222791   0.000090666
   6  5  0      -56.1842207635    -0.0000000220   0.000056057   0.000014521
   7  6  0      -56.1842207646    -0.0000000011   0.000005191   0.000003358
   8  7  0      -56.1842207646    -0.0000000000   0.000000338   0.000000136

          -----------------
          DENSITY CONVERGED
          -----------------
     TIME TO FORM FOCK OPERATORS=       0.0 SECONDS (       0.0 SEC/ITER)
     TIME TO SOLVE SCF EQUATIONS=       0.0 SECONDS (       0.0 SEC/ITER)

 FINAL RHF ENERGY IS      -56.1842207646 AFTER   8 ITERATIONS
 ...... END OF RHF CALCULATION ......
 STEP CPU TIME =     0.00 TOTAL CPU TIME =          0.0 (      0.0 MIN)
 TOTAL WALL CLOCK TIME=          0.0 SECONDS, CPU UTILIZATION IS    99.39%
 ..... END OF 1-ELECTRON GRADIENT ......
 STEP CPU TIME =     0.00 TOTAL CPU TIME =          0.0 (      0.0 MIN)
 TOTAL WALL CLOCK TIME=          0.0 SECONDS, CPU UTILIZATION IS    99.40%
 ...... END OF 2-ELECTRON GRADIENT ......
 STEP CPU TIME =     0.00 TOTAL CPU TIME =          0.0 (      0.0 MIN)
 TOTAL WALL CLOCK TIME=          0.0 SECONDS, CPU UTILIZATION IS    99.43%

          NSERCH=  3     ENERGY=     -56.1842208

                                 -----------------------
                                 GRADIENT (HARTREE/BOHR)
                                 -----------------------
        ATOM     ZNUC       DE/DX         DE/DY         DE/DZ
 --------------------------------------------------------------
    1  N            7.0     0.0000000     0.0000000    -0.0085008
    2  H            1.0    -0.0014256     0.0024692     0.0028336
    3  H            1.0    -0.0014256    -0.0024692     0.0028336
    4  H            1.0     0.0028511     0.0000000     0.0028336

          MAXIMUM GRADIENT = 0.0085008    RMS GRADIENT = 0.0031720

 NSERCH:   3  E=      -56.1842207646  GRAD. MAX=  0.0085008  R.M.S.=  0.0031720

          HESSIAN UPDATED USING THE BFGS FORMULA
             ACTUAL ENERGY CHANGE WAS  -0.0006194614
          PREDICTED ENERGY CHANGE WAS  -0.0004433874 RATIO=  1.397
          MIN SEARCH, CORRECT HESSIAN, TRYING PURE NR STEP
               NR STEP HAS LENGTH         =   0.028175
          RADIUS OF STEP TAKEN=   0.02818  CURRENT TRUST RADIUS=   0.05000

 BEGINNING GEOMETRY SEARCH POINT NSERCH=   4 ...

 COORDINATES OF SYMMETRY UNIQUE ATOMS (ANGS)
   ATOM   CHARGE       X              Y              Z
 ------------------------------------------------------------
 N           7.0  -0.0000000000  -0.0000000000   0.0378436197
 H           1.0   0.9308231630   0.0000000000   0.4107174133
 COORDINATES OF ALL ATOMS ARE (ANGS)
   ATOM   CHARGE       X              Y              Z
 ------------------------------------------------------------
 N           7.0  -0.0000000000  -0.0000000000   0.0378436197
 H           1.0  -0.4654115815   0.8061165055   0.4107174133
 H           1.0  -0.4654115815  -0.8061165055   0.4107174133
 H           1.0   0.9308231630   0.0000000000   0.4107174133

          INTERNUCLEAR DISTANCES (ANGS.)
          ------------------------------

                1 N          2 H          3 H          4 H     

   1 N       0.0000000    1.0027296 *  1.0027296 *  1.0027296 *
   2 H       1.0027296 *  0.0000000    1.6122330 *  1.6122330 *
   3 H       1.0027296 *  1.6122330 *  0.0000000    1.6122330 *
   4 H       1.0027296 *  1.6122330 *  1.6122330 *  0.0000000  

  * ... LESS THAN  3.000

 ...... END OF ONE-ELECTRON INTEGRALS ......
 STEP CPU TIME =     0.00 TOTAL CPU TIME =          0.0 (      0.0 MIN)
 TOTAL WALL CLOCK TIME=          0.0 SECONDS, CPU UTILIZATION IS    99.43%
 TOTAL NUMBER OF NONZERO TWO-ELECTRON INTEGRALS =                5020
          1 INTEGRAL RECORDS WERE STORED ON DISK FILE  8.
  ...... END OF TWO-ELECTRON INTEGRALS .....
 STEP CPU TIME =     0.00 TOTAL CPU TIME =          0.0 (      0.0 MIN)
 TOTAL WALL CLOCK TIME=          0.0 SECONDS, CPU UTILIZATION IS    99.45%

          --------------------------
                 RHF SCF CALCULATION
          --------------------------
     DENSITY MATRIX CONV=  1.00E-05

 ITER EX DEM     TOTAL ENERGY        E CHANGE  DENSITY CHANGE    DIIS ERROR
          * * *   INITIATING DIIS PROCEDURE   * * *
   1  0  0      -56.1842542709   -56.1842542709   0.008744608   0.006658665
   2  1  0      -56.1843428817    -0.0000886107   0.003154489   0.003103088
   3  2  0      -56.1843523628    -0.0000094811   0.001188456   0.001027521
   4  3  0      -56.1843543096    -0.0000019468   0.000518783   0.000204071
   5  4  0      -56.1843544718    -0.0000001622   0.000174917   0.000067962
   6  5  0      -56.1843544843    -0.0000000125   0.000038640   0.000010324
   7  6  0      -56.1843544848    -0.0000000005   0.000003699   0.000002349
   8  7  0      -56.1843544848    -0.0000000000   0.000000231   0.000000108

          -----------------
          DENSITY CONVERGED
          -----------------
     TIME TO FORM FOCK OPERATORS=       0.0 SECONDS (       0.0 SEC/ITER)
     TIME TO SOLVE SCF EQUATIONS=       0.0 SECONDS (       0.0 SEC/ITER)

 FINAL RHF ENERGY IS      -56.1843544848 AFTER   8 ITERATIONS
 ...... END OF RHF CALCULATION ......
 STEP CPU TIME =     0.00 TOTAL CPU TIME =          0.0 (      0.0 MIN)
 TOTAL WALL CLOCK TIME=          0.0 SECONDS, CPU UTILIZATION IS    99.47%
 ..... END OF 1-ELECTRON GRADIENT ......
 STEP CPU TIME =     0.00 TOTAL CPU TIME =          0.0 (      0.0 MIN)
 TOTAL WALL CLOCK TIME=          0.0 SECONDS, CPU UTILIZATION IS    99.48%
 ...... END OF 2-ELECTRON GRADIENT ......
 STEP CPU TIME =     0.00 TOTAL CPU TIME =          0.0 (      0.0 MIN)
 TOTAL WALL CLOCK TIME=          0.0 SECONDS, CPU UTILIZATION IS    99.49%

          NSERCH=  4     ENERGY=     -56.1843545

                                 -----------------------
                                 GRADIENT (HARTREE/BOHR)
                                 -----------------------
        ATOM     ZNUC       DE/DX         DE/DY         DE/DZ
 --------------------------------------------------------------
    1  N            7.0     0.0000000     0.0000000    -0.0007007
    2  H            1.0     0.0000318    -0.0000551     0.0002336
    3  H            1.0     0.0000318     0.0000551     0.0002336
    4  H            1.0    -0.0000636     0.0000000     0.0002336

          MAXIMUM GRADIENT = 0.0007007    RMS GRADIENT = 0.0002357

 NSERCH:   4  E=      -56.1843544848  GRAD. MAX=  0.0007007  R.M.S.=  0.0002357

          HESSIAN UPDATED USING THE BFGS FORMULA
             ACTUAL ENERGY CHANGE WAS  -0.0001337202
          PREDICTED ENERGY CHANGE WAS  -0.0001238880 RATIO=  1.079
          MIN SEARCH, CORRECT HESSIAN, TRYING PURE NR STEP
               NR STEP HAS LENGTH         =   0.004769
          RADIUS OF STEP TAKEN=   0.00477  CURRENT TRUST RADIUS=   0.05635

 BEGINNING GEOMETRY SEARCH POINT NSERCH=   5 ...

 COORDINATES OF SYMMETRY UNIQUE ATOMS (ANGS)
   ATOM   CHARGE       X              Y              Z
 ------------------------------------------------------------
 N           7.0  -0.0000000000  -0.0000000000   0.0396787512
 H           1.0   0.9316147517   0.0000000000   0.4101057028
 COORDINATES OF ALL ATOMS ARE (ANGS)
   ATOM   CHARGE       X              Y              Z
 ------------------------------------------------------------
 N           7.0  -0.0000000000  -0.0000000000   0.0396787512
 H           1.0  -0.4658073758   0.8068020415   0.4101057028
 H           1.0  -0.4658073758  -0.8068020415   0.4101057028
 H           1.0   0.9316147517   0.0000000000   0.4101057028

          INTERNUCLEAR DISTANCES (ANGS.)
          ------------------------------

                1 N          2 H          3 H          4 H     

   1 N       0.0000000    1.0025578 *  1.0025578 *  1.0025578 *
   2 H       1.0025578 *  0.0000000    1.6136041 *  1.6136041 *
   3 H       1.0025578 *  1.6136041 *  0.0000000    1.6136041 *
   4 H       1.0025578 *  1.6136041 *  1.6136041 *  0.0000000  

  * ... LESS THAN  3.000

 ...... END OF ONE-ELECTRON INTEGRALS ......
 STEP CPU TIME =     0.00 TOTAL CPU TIME =          0.0 (      0.0 MIN)
 TOTAL WALL CLOCK TIME=          0.0 SECONDS, CPU UTILIZATION IS    99.49%
 TOTAL NUMBER OF NONZERO TWO-ELECTRON INTEGRALS =                5020
          1 INTEGRAL RECORDS WERE STORED ON DISK FILE  8.
  ...... END OF TWO-ELECTRON INTEGRALS .....
 STEP CPU TIME =     0.00 TOTAL CPU TIME =          0.0 (      0.0 MIN)
 TOTAL WALL CLOCK TIME=          0.0 SECONDS, CPU UTILIZATION IS    99.50%

          --------------------------
                 RHF SCF CALCULATION
          --------------------------
     DENSITY MATRIX CONV=  1.00E-05

 ITER EX DEM     TOTAL ENERGY        E CHANGE  DENSITY CHANGE    DIIS ERROR
          * * *   INITIATING DIIS PROCEDURE   * * *
   1  0  0      -56.1843545587   -56.1843545587   0.000905078   0.001109584
   2  1  0      -56.1843561881    -0.0000016294   0.000357239   0.000257928
   3  2  0      -56.1843563175    -0.0000001294   0.000104996   0.000079588
   4  3  0      -56.1843563327    -0.0000000152   0.000053287   0.000024556
   5  4  0      -56.1843563352    -0.0000000025   0.000029511   0.000011358
   6  5  0      -56.1843563355    -0.0000000004   0.000004914   0.000001448
   7  6  0      -56.1843563356    -0.0000000000   0.000000452   0.000000300

          -----------------
          DENSITY CONVERGED
          -----------------
     TIME TO FORM FOCK OPERATORS=       0.0 SECONDS (       0.0 SEC/ITER)
     TIME TO SOLVE SCF EQUATIONS=       0.0 SECONDS (       0.0 SEC/ITER)

 FINAL RHF ENERGY IS      -56.1843563356 AFTER   7 ITERATIONS
 ...... END OF RHF CALCULATION ......
 STEP CPU TIME =     0.00 TOTAL CPU TIME =          0.0 (      0.0 MIN)
 TOTAL WALL CLOCK TIME=          0.0 SECONDS, CPU UTILIZATION IS    99.52%
 ..... END OF 1-ELECTRON GRADIENT ......
 STEP CPU TIME =     0.00 TOTAL CPU TIME =          0.1 (      0.0 MIN)
 TOTAL WALL CLOCK TIME=          0.1 SECONDS, CPU UTILIZATION IS    99.53%
 ...... END OF 2-ELECTRON GRADIENT ......
 STEP CPU TIME =     0.00 TOTAL CPU TIME =          0.1 (      0.0 MIN)
 TOTAL WALL CLOCK TIME=          0.1 SECONDS, CPU UTILIZATION IS    99.54%

          NSERCH=  5     ENERGY=     -56.1843563

                                 -----------------------
                                 GRADIENT (HARTREE/BOHR)
                                 -----------------------
        ATOM     ZNUC       DE/DX         DE/DY         DE/DZ
 --------------------------------------------------------------
    1  N            7.0     0.0000000     0.0000000    -0.0000585
    2  H            1.0    -0.0000096     0.0000167     0.0000195
    3  H            1.0    -0.0000096    -0.0000167     0.0000195
    4  H            1.0     0.0000192     0.0000000     0.0000195

          MAXIMUM GRADIENT = 0.0000585    RMS GRADIENT = 0.0000217

 NSERCH:   5  E=      -56.1843563356  GRAD. MAX=  0.0000585  R.M.S.=  0.0000217


      ***** EQUILIBRIUM GEOMETRY LOCATED *****
 COORDINATES OF SYMMETRY UNIQUE ATOMS (ANGS)
   ATOM   CHARGE       X              Y              Z
 ------------------------------------------------------------
 N           7.0  -0.0000000000  -0.0000000000   0.0396787512
 H           1.0   0.9316147517   0.0000000000   0.4101057028
 COORDINATES OF ALL ATOMS ARE (ANGS)
   ATOM   CHARGE       X              Y              Z
 ------------------------------------------------------------
 N           7.0  -0.0000000000  -0.0000000000   0.0396787512
 H           1.0  -0.4658073758   0.8068020415   0.4101057028
 H           1.0  -0.4658073758  -0.8068020415   0.4101057028
 H           1.0   0.9316147517   0.0000000000   0.4101057028

          INTERNUCLEAR DISTANCES (ANGS.)
          ------------------------------

                1 N          2 H          3 H          4 H     

   1 N       0.0000000    1.0025578 *  1.0025578 *  1.0025578 *
   2 H       1.0025578 *  0.0000000    1.6136041 *  1.6136041 *
   3 H       1.0025578 *  1.6136041 *  0.0000000    1.6136041 *
   4 H       1.0025578 *  1.6136041 *  1.6136041 *  0.0000000  

  * ... LESS THAN  3.000


          NUCLEAR ENERGY    =       12.0682126405
          ELECTRONIC ENERGY =      -68.2525689760
          TOTAL ENERGY      =      -56.1843563356

          ------------------
          MOLECULAR ORBITALS
          ------------------

                      1          2          3          4          5
                  -15.5344    -1.1402    -0.6276    -0.6276    -0.4199
                     A1         A1         E          E          A1  
    1  N  1  S   -0.994957  -0.197519   0.000000   0.000000   0.063006
    2  N  1  S   -0.024838   0.410370   0.000000   0.000000  -0.147990
    3  N  1  X    0.000000   0.000000  -0.472872   0.000000   0.000000
    4  N  1  Y    0.000000   0.000000   0.000000  -0.472872   0.000000
    5  N  1  Z   -0.001517   0.088847   0.000000   0.000000   0.555222
    6  N  1  S    0.001559   0.427731   0.000000   0.000000  -0.268534
    7  N  1  X    0.000000   0.000000  -0.278101   0.000000   0.000000
    8  N  1  Y    0.000000   0.000000   0.000000  -0.278101   0.000000
    9  N  1  Z    0.000890   0.047827   0.000000   0.000000   0.491930
   10  N  1 XX    0.003528   0.014932  -0.021417   0.000000  -0.008674
   11  N  1 YY    0.003528   0.014932   0.021417   0.000000  -0.008674
   12  N  1 ZZ    0.003352   0.000111   0.000000   0.000000   0.032150
   13  N  1 XY    0.000000   0.000000   0.000000   0.024730   0.000000
   14  N  1 XZ    0.000000   0.000000  -0.039418   0.000000   0.000000
   15  N  1 YZ    0.000000   0.000000   0.000000  -0.039418   0.000000
   16  H  2  S   -0.000223   0.137638   0.138449  -0.239801   0.064376
   17  H  2  S   -0.000557   0.009872   0.081664  -0.141446   0.046367
   18  H  3  S   -0.000223   0.137638   0.138449   0.239801   0.064376
   19  H  3  S   -0.000557   0.009872   0.081664   0.141446   0.046367
   20  H  4  S   -0.000223   0.137638  -0.276898   0.000000   0.064376
   21  H  4  S   -0.000557   0.009872  -0.163328   0.000000   0.046367

                      6          7          8          9         10
                    0.2229     0.3249     0.3249     0.8965     0.8965
                     A1         E          E          E          E   
    1  N  1  S   -0.125701   0.000000   0.000000   0.000000   0.000000
    2  N  1  S    0.100167   0.000000   0.000000   0.000000   0.000000
    3  N  1  X    0.000000   0.330120   0.000000  -0.366536   0.000000
    4  N  1  Y    0.000000   0.000000   0.330120   0.000000  -0.366536
    5  N  1  Z    0.143276   0.000000   0.000000   0.000000   0.000000
    6  N  1  S    2.008686   0.000000   0.000000   0.000000   0.000000
    7  N  1  X    0.000000   1.131207   0.000000   1.230312   0.000000
    8  N  1  Y    0.000000   0.000000   1.131207   0.000000   1.230312
    9  N  1  Z    0.490417   0.000000   0.000000   0.000000   0.000000
   10  N  1 XX   -0.039778  -0.001753   0.000000  -0.119424   0.000000
   11  N  1 YY   -0.039778   0.001753   0.000000   0.119424   0.000000
   12  N  1 ZZ   -0.040227   0.000000   0.000000   0.000000   0.000000
   13  N  1 XY    0.000000   0.000000   0.002024   0.000000   0.137899
   14  N  1 XZ    0.000000   0.016768   0.000000  -0.081218   0.000000
   15  N  1 YZ    0.000000   0.000000   0.016768   0.000000  -0.081218
   16  H  2  S   -0.026760   0.022006  -0.038116   0.384260  -0.665558
   17  H  2  S   -0.985243   0.900205  -1.559201  -0.009659   0.016730
   18  H  3  S   -0.026760   0.022006   0.038116   0.384260   0.665558
   19  H  3  S   -0.985243   0.900205   1.559201  -0.009659  -0.016730
   20  H  4  S   -0.026760  -0.044013   0.000000  -0.768520   0.000000
   21  H  4  S   -0.985243  -1.800411   0.000000   0.019318   0.000000

                     11         12         13         14         15
                    0.9699     1.2191     1.2322     1.2322     1.3644
                     A1         A1         E          E          A1  
    1  N  1  S    0.017284  -0.061498   0.000000   0.000000  -0.094240
    2  N  1  S   -0.246034   0.700507   0.000000   0.000000  -1.532223
    3  N  1  X    0.000000   0.000000  -1.025920   0.000000   0.000000
    4  N  1  Y    0.000000   0.000000   0.000000  -1.025920   0.000000
    5  N  1  Z    0.957802   0.346701   0.000000   0.000000  -0.158338
    6  N  1  S    0.153053  -0.991277   0.000000   0.000000   4.181154
    7  N  1  X    0.000000   0.000000   1.319756   0.000000   0.000000
    8  N  1  Y    0.000000   0.000000   0.000000   1.319756   0.000000
    9  N  1  Z   -1.084953  -0.082411   0.000000   0.000000   0.814017
   10  N  1 XX   -0.061461   0.001738   0.109257   0.000000  -0.416792
   11  N  1 YY   -0.061461   0.001738  -0.109257   0.000000  -0.416792
   12  N  1 ZZ   -0.077786   0.288136   0.000000   0.000000  -0.085247
   13  N  1 XY    0.000000   0.000000   0.000000  -0.126159   0.000000
   14  N  1 XZ    0.000000   0.000000   0.079134   0.000000   0.000000
   15  N  1 YZ    0.000000   0.000000   0.000000   0.079134   0.000000
   16  H  2  S    0.111701  -0.691065  -0.278582   0.482518  -0.340421
   17  H  2  S    0.043372   0.541861   0.676584  -1.171878  -0.805863
   18  H  3  S    0.111701  -0.691065  -0.278582  -0.482518  -0.340421
   19  H  3  S    0.043372   0.541861   0.676584   1.171878  -0.805863
   20  H  4  S    0.111701  -0.691065   0.557164   0.000000  -0.340421
   21  H  4  S    0.043372   0.541861  -1.353169   0.000000  -0.805863

     ----------------------------------------------------------------
     PROPERTY VALUES FOR THE RHF   SELF-CONSISTENT FIELD WAVEFUNCTION
     ----------------------------------------------------------------

          -----------------
          ENERGY COMPONENTS
          -----------------

         WAVEFUNCTION NORMALIZATION =       1.0000000000

                ONE ELECTRON ENERGY =     -99.8056715059
                TWO ELECTRON ENERGY =      31.5531025299
           NUCLEAR REPULSION ENERGY =      12.0682126405
                                      ------------------
                       TOTAL ENERGY =     -56.1843563356

 ELECTRON-ELECTRON POTENTIAL ENERGY =      31.5531025299
  NUCLEUS-ELECTRON POTENTIAL ENERGY =    -155.9073909327
   NUCLEUS-NUCLEUS POTENTIAL ENERGY =      12.0682126405
                                      ------------------
             TOTAL POTENTIAL ENERGY =    -112.2860757624
               TOTAL KINETIC ENERGY =      56.1017194268
                 VIRIAL RATIO (V/T) =       2.0014729835

          ---------------------------------------
          MULLIKEN AND LOWDIN POPULATION ANALYSES
          ---------------------------------------

     ATOMIC MULLIKEN POPULATION IN EACH MOLECULAR ORBITAL

                      1          2          3          4          5

                  2.000000   2.000000   2.000000   2.000000   2.000000

    1             1.999657   1.574973   1.244740   1.244740   1.931822
    2             0.000114   0.141676   0.125877   0.377630   0.022726
    3             0.000114   0.141676   0.125877   0.377630   0.022726
    4             0.000114   0.141676   0.503507   0.000000   0.022726

               ----- POPULATIONS IN EACH AO -----
                             MULLIKEN      LOWDIN
              1  N  1  S      1.99547     1.97925
              2  N  1  S      0.76754     0.52147
              3  N  1  X      0.74769     0.68722
              4  N  1  Y      0.74769     0.68755
              5  N  1  Z      0.96744     0.94494
              6  N  1  S      0.88844     0.42356
              7  N  1  X      0.47816     0.55411
              8  N  1  Y      0.47816     0.55502
              9  N  1  Z      0.85133     0.87376
             10  N  1 XX      0.02693     0.19707
             11  N  1 YY      0.02693     0.19707
             12  N  1 ZZ     -0.00998     0.14982
             13  N  1 XY      0.00765     0.01211
             14  N  1 XZ      0.01125     0.01326
             15  N  1 YZ      0.01125     0.01333
             16  H  2  S      0.50597     0.46449
             17  H  2  S      0.16205     0.26513
             18  H  3  S      0.50597     0.46449
             19  H  3  S      0.16205     0.26513
             20  H  4  S      0.50597     0.46599
             21  H  4  S      0.16205     0.26522

          ----- MULLIKEN ATOMIC OVERLAP POPULATIONS -----
          (OFF-DIAGONAL ELEMENTS NEED TO BE MULTIPLIED BY 2)

             1           2           3           4

    1    7.0009332
    2    0.3316657   0.3878927
    3    0.3316657  -0.0257675   0.3878927
    4    0.3316657  -0.0257675  -0.0257675   0.3878927

          TOTAL MULLIKEN AND LOWDIN ATOMIC POPULATIONS
       ATOM         MULL.POP.    CHARGE          LOW.POP.     CHARGE
    1 N             7.995930   -0.995930         7.809555   -0.809555
    2 H             0.668023    0.331977         0.729620    0.270380
    3 H             0.668023    0.331977         0.729620    0.270380
    4 H             0.668023    0.331977         0.731205    0.268795

          -------------------------------
          BOND ORDER AND VALENCE ANALYSIS     BOND ORDER THRESHOLD=0.050
          -------------------------------

                   BOND                       BOND                       BOND
  ATOM PAIR DIST  ORDER      ATOM PAIR DIST  ORDER      ATOM PAIR DIST  ORDER
    1   2  1.003  0.865        1   3  1.003  0.865        1   4  1.003  0.865

                       TOTAL       BONDED        FREE
      ATOM            VALENCE     VALENCE     VALENCE
    1 N                 2.596       2.596      -0.000
    2 H                 0.852       0.852      -0.000
    3 H                 0.852       0.852      -0.000
    4 H                 0.852       0.852      -0.000

          ---------------------
          ELECTROSTATIC MOMENTS
          ---------------------

 POINT   1           X           Y           Z (BOHR)    CHARGE
                -0.000000    0.000000    0.199285       -0.00 (A.U.)
         DX          DY          DZ         /D/  (DEBYE)
    -0.000000    0.000000    1.920429    1.920429
 ...... END OF PROPERTY EVALUATION ......
 STEP CPU TIME =     0.00 TOTAL CPU TIME =          0.1 (      0.0 MIN)
 TOTAL WALL CLOCK TIME=          0.1 SECONDS, CPU UTILIZATION IS    99.56%
  $VIB   
          IVIB=   0 IATOM=   0 ICOORD=   0 E=      -56.1843563356
  0.000000000E+00 0.000000000E+00-5.846378345E-05-9.612892676E-06 1.665001852E-05
  1.948792782E-05-9.612892676E-06-1.665001852E-05 1.948792782E-05 1.922578535E-05
  0.000000000E+00 1.948792782E-05
 -5.079468846E-15 1.002634815E-14 1.920429175E+00
 ......END OF GEOMETRY SEARCH......
 STEP CPU TIME =     0.00 TOTAL CPU TIME =          0.1 (      0.0 MIN)
 TOTAL WALL CLOCK TIME=          0.1 SECONDS, CPU UTILIZATION IS    99.56%
               999184  WORDS OF DYNAMIC MEMORY USED
 EXECUTION OF GAMESS TERMINATED NORMALLY 11:30:47 23-JUN-2021    
 DDI: 263640 bytes (0.3 MB / 0 MWords) used by master data server.

 ----------------------------------------
 CPU timing information for all processes
 ========================================
 0: 0.39 + 0.15 = 0.55
 ----------------------------------------
 ddikick.x: exited gracefully.
unset echo
----- accounting info -----
Files used on the master node jackson-Z97X-UD3H-BK were:
-rw-rw-r-- 1 jackson jackson     317 Jun 23 11:30 /home/jackson/Source/GamessRuns/3c.F05
-rw-rw-r-- 1 jackson jackson  180016 Jun 23 11:30 /home/jackson/Source/GamessRuns/3c.F08
-rw-rw-r-- 1 jackson jackson 1668720 Jun 23 11:30 /home/jackson/Source/GamessRuns/3c.F10
ls: No match.
ls: No match.
ls: No match.
Wed 23 Jun 2021 11:30:50 AM CDT
0.1u 0.0s 0:03.29 6.9% 0+0k 0+16io 0pf+0w
